
# Model for PE

    512   atoms
    511   bonds
    510   angles
    509   dihedrals

     2   atom types
     1   bond types
     1   angle types
     1   dihedral types

  750.0000 900.0000 xlo xhi
  100.0000 250.0000 ylo yhi
  875.0000 1025.0000 zlo zhi

Masses

     1     14.02
     2     14.02
     
Atoms

1 1 1 808.000000 173.000000 939.000000 
2 1 1 808.099216 173.540239 939.985070 
3 1 1 807.394812 173.265810 940.900308 
4 1 1 807.526579 172.926774 941.641139 
5 1 1 807.406851 171.832249 941.940846 
6 1 1 807.557842 171.115189 941.227589 
7 1 1 808.355968 171.015320 941.518387 
8 1 1 808.828275 172.046794 941.649565 
9 1 1 809.014786 172.652770 942.364577 
10 1 1 808.702002 173.299536 943.027641 
11 1 1 809.358657 174.141939 943.543373 
12 1 1 809.708234 174.353059 942.748421 
13 1 1 810.546922 173.830238 942.779022 
14 1 1 811.419181 173.740864 943.628031 
15 1 1 812.334346 173.247276 943.821860 
16 1 1 812.196127 172.596109 944.488720 
17 1 1 812.052391 171.553963 943.902014 
18 1 1 812.644618 170.966967 944.299155 
19 1 1 811.754582 170.491824 944.746776 
20 1 1 811.315781 170.488742 943.907950 
21 1 1 811.013605 169.501846 944.095560 
22 1 1 810.414661 168.816108 943.904086 
23 1 1 809.877123 169.002969 943.173067 
24 1 1 809.415455 169.604175 942.426649 
25 1 1 809.765639 170.388479 941.772195 
26 1 1 810.288430 169.676077 941.167150 
27 1 1 810.533052 168.868444 940.747768 
28 1 1 811.070901 168.715287 939.952879 
29 1 1 810.893558 169.585205 939.435163 
30 1 1 810.483419 170.259359 940.106375 
31 1 1 811.080844 171.096481 940.669759 
32 1 1 811.956481 171.458895 940.655159 
33 1 1 812.475506 171.758956 941.274108 
34 1 1 813.099051 172.571380 941.856771 
35 1 1 814.072185 172.685925 941.585025 
36 1 1 814.953703 173.517783 941.798352 
37 1 1 814.590921 174.026926 941.041630 
38 1 1 813.765838 174.286972 941.219831 
39 1 1 813.079730 174.590280 941.791488 
40 1 1 813.120646 174.001605 942.687411 
41 1 1 813.546556 174.444124 943.608692 
42 1 1 814.414728 174.564763 943.674270 
43 1 1 815.048979 174.880438 944.569051 
44 1 1 814.333576 175.746809 944.582064 
45 1 1 814.873904 175.861452 945.337974 
46 1 1 815.682107 175.696463 945.617859 
47 1 1 816.558370 174.890667 945.643864 
48 1 2 816.926701 174.293918 945.030091 
49 1 1 816.740596 173.544758 945.627885 
50 1 1 815.763500 172.827778 945.656825 
51 1 1 815.342619 172.669674 946.489639 
52 1 1 815.589547 172.601505 947.304700 
53 1 1 815.932978 173.182797 948.199619 
54 1 1 815.787197 173.792117 947.581600 
55 1 1 816.862609 173.732881 947.292914 
56 1 2 817.325138 173.296725 946.670809 
57 1 1 817.847331 173.075372 945.696887 
58 1 1 818.319257 172.403842 944.853746 
59 1 1 819.065465 173.021146 944.368245 
60 1 1 819.288931 172.441383 943.433515 
61 1 1 820.184759 172.711905 942.606616 
62 1 1 819.836650 172.390066 941.608182 
63 1 1 820.436018 171.798108 941.703500 
64 1 1 820.804617 170.878320 941.565304 
65 1 1 820.342418 170.818494 942.615082 
66 1 1 821.197818 170.562770 943.318256 
67 1 1 821.275118 169.912046 943.939891 
68 1 1 821.769118 170.393191 944.770968 
69 1 1 820.935359 170.854680 945.130830 
70 1 1 819.960088 170.186822 944.865011 
71 1 1 819.091632 170.546370 945.622349 
72 1 1 818.801694 171.374416 946.184848 
73 1 1 819.219428 172.307718 946.164006 
74 1 2 820.097891 172.755669 945.561901 
75 1 1 820.936033 172.430866 946.055745 
76 1 2 820.789846 172.255956 946.855553 
77 1 1 820.777798 171.447758 947.370962 
78 1 1 820.605625 170.513495 946.759584 
79 1 1 820.623096 169.612903 947.590936 
80 1 1 820.928346 169.098297 948.535237 
81 1 1 821.189319 168.798328 949.370922 
82 1 1 821.369707 167.819770 949.283712 
83 1 2 822.114338 167.825083 948.799570 
84 1 1 823.064003 167.826173 948.582904 
85 1 1 823.547783 166.991675 949.098404 
86 1 1 824.254051 167.696930 949.388839 
87 1 1 824.245161 168.364623 950.073873 
88 1 1 825.025758 168.862941 950.518876 
89 1 2 825.785455 169.537797 949.824183 
90 1 1 826.443770 168.939421 949.005158 
91 1 1 826.947441 168.065670 949.499551 
92 1 1 827.057488 167.023490 949.227451 
93 1 1 826.989181 166.708026 948.286023 
94 1 1 826.674261 167.342103 947.797378 
95 1 1 826.997418 168.189373 947.972625 
96 1 1 827.584603 168.373360 947.374837 
97 1 1 828.253893 168.862523 946.996939 
98 1 1 827.745689 169.337504 946.532182 
99 1 1 826.912851 169.045430 946.633363 
100 1 1 826.325904 169.589810 946.340010 
101 1 2 825.552989 170.340275 946.247401 
102 1 1 824.927061 170.287521 947.002441 
103 1 1 825.676794 170.293933 947.707929 
104 1 1 826.626112 169.892978 947.627918 
105 1 1 827.140110 170.754631 948.076754 
106 1 2 828.045891 171.044871 947.369991 
107 1 2 828.452815 170.453517 946.540703 
108 1 2 828.935545 171.366497 945.915647 
109 1 2 829.345695 172.220539 946.082699 
110 1 1 830.375558 172.407773 946.333045 
111 1 1 830.870986 172.377575 947.193664 
112 1 1 831.493670 171.697040 947.115638 
113 1 2 830.614588 170.997485 947.315610 
114 1 1 830.147957 170.165230 947.385891 
115 1 1 829.343822 169.431068 947.937358 
116 1 1 828.279168 169.099231 948.449944 
117 1 1 827.384875 169.677651 948.916013 
118 1 1 826.815326 169.878854 949.602136 
119 1 1 827.321409 169.947270 950.447212 
120 1 2 827.385366 169.057030 951.159212 
121 1 1 826.713788 168.670598 950.883325 
122 1 1 825.813684 168.487320 951.541307 
123 1 2 825.145436 168.978970 951.575143 
124 1 1 825.439558 169.920280 951.001941 
125 1 1 824.620408 170.209964 950.511481 
126 1 1 823.721210 170.578622 951.026450 
127 1 1 824.285430 171.037101 951.868126 
128 1 1 824.960222 171.842207 951.905728 
129 1 1 825.837791 172.355751 951.845579 
130 1 2 826.034843 171.718488 951.056182 
131 1 1 826.755678 171.146095 950.332826 
132 1 1 827.516663 171.088720 949.951137 
133 1 1 828.134779 170.539949 949.465532 
134 1 1 828.708771 170.353896 948.500781 
135 1 1 829.445958 170.679125 948.420804 
136 1 1 829.609510 171.501682 947.863167 
137 1 1 829.778469 172.433311 947.933631 
138 1 1 829.564620 173.211197 948.117273 
139 1 2 829.129777 173.697659 947.414801 
140 1 1 828.925178 174.610160 947.498596 
141 1 1 829.791864 174.914121 948.265481 
142 1 2 830.606809 174.282952 948.677288 
143 1 1 830.874102 174.213944 949.826988 
144 1 1 831.813202 174.649574 949.427003 
145 1 1 832.578304 175.218485 949.010575 
146 1 1 832.776907 175.970266 949.901013 
147 1 1 833.570779 176.927912 949.819889 
148 1 1 834.097662 177.568654 950.055651 
149 1 2 834.457753 178.682882 949.618506 
150 1 1 833.561339 179.216004 950.271975 
151 1 2 833.627451 179.860881 951.132539 
152 1 2 834.115763 180.329411 951.913004 
153 1 2 833.645058 179.948991 952.900369 
154 1 1 833.298810 180.586081 953.503900 
155 1 1 832.549767 181.163695 953.663533 
156 1 1 832.510428 181.318241 952.592077 
157 1 2 831.481918 181.625520 952.522086 
158 1 1 831.503778 182.364888 951.586081 
159 1 1 832.415345 182.210462 951.305405 
160 1 1 832.381021 181.606278 950.487078 
161 1 2 832.493558 180.922697 949.651704 
162 1 1 832.709903 180.986840 948.721000 
163 1 1 832.123402 181.767177 947.955824 
164 1 2 833.230686 182.033457 947.569149 
165 1 1 833.033424 181.769671 946.528501 
166 1 2 833.772878 182.527717 946.093823 
167 1 1 834.128925 183.238145 946.344246 
168 1 1 833.560903 184.100232 946.422605 
169 1 2 832.751949 184.360201 946.641557 
170 1 1 831.600504 184.401889 946.822361 
171 1 2 830.953340 184.783340 946.361141 
172 1 1 831.646022 184.884109 945.469509 
173 1 2 832.397839 185.375561 946.034272 
174 1 2 831.871853 186.205683 946.478787 
175 1 1 831.345460 186.704218 945.594913 
176 1 1 830.534532 186.246504 945.064705 
177 1 2 830.153572 185.542103 945.705164 
178 1 2 829.355211 185.086831 945.389673 
179 1 1 828.880255 185.025254 946.431883 
180 1 1 828.270965 184.054827 946.012479 
181 1 1 827.677377 183.887338 946.834938 
182 1 1 827.299893 183.317008 947.297458 
183 1 2 826.695508 183.513825 947.983212 
184 1 2 826.856319 183.394330 948.882534 
185 1 1 826.614750 184.325477 949.066491 
186 1 1 826.061190 184.277535 949.781610 
187 1 2 825.323704 183.342491 950.040028 
188 1 1 824.530198 183.243580 950.649788 
189 1 2 824.113205 183.762413 950.091568 
190 1 1 824.349513 183.634599 949.304523 
191 1 2 824.030006 183.349168 948.600671 
192 1 1 823.347319 182.663613 948.288638 
193 1 1 823.276122 181.744960 947.902313 
194 1 1 822.563021 181.251500 947.890185 
195 1 2 822.175973 180.569112 947.021885 
196 1 1 823.077258 180.205069 947.064440 
197 1 2 823.901318 180.541139 947.932814 
198 1 1 824.291845 181.100153 947.346583 
199 1 2 824.128690 182.243123 947.241383 
200 1 1 823.694867 182.861473 946.459185 
201 1 2 823.982604 183.573241 946.847206 
202 1 1 823.955101 184.442622 947.552245 
203 1 1 822.971474 184.987826 947.193857 
204 1 2 822.875646 185.823069 946.436229 
205 1 1 822.460714 186.627424 946.175146 
206 1 1 822.732221 187.449016 946.793069 
207 1 2 822.432719 188.030375 945.744081 
208 1 1 822.362969 187.232228 945.110178 
209 1 2 822.159795 186.372234 944.260170 
210 1 1 822.211802 185.333448 943.601273 
211 1 2 823.169356 185.072521 944.212094 
212 1 1 824.026957 184.836558 944.377291 
213 1 2 824.788116 184.631819 945.178039 
214 1 1 824.311704 185.419929 945.958806 
215 1 1 824.671593 186.172427 946.074761 
216 1 1 825.406540 186.849193 945.765346 
217 1 1 824.846999 187.227607 944.946849 
218 1 1 824.340132 186.658989 944.294580 
219 1 2 824.611435 186.712281 943.432206 
220 1 1 825.528825 186.476492 943.305509 
221 1 2 826.446574 185.969015 942.816385 
222 1 1 827.310163 185.430729 943.395425 
223 1 2 827.930009 186.021821 943.907938 
224 1 2 828.520985 185.356429 944.144374 
225 1 2 828.904624 184.527537 943.369030 
226 1 1 828.194302 184.783425 942.490039 
227 1 2 827.696091 184.174883 941.838081 
228 1 1 827.510401 184.113678 940.913684 
229 1 1 826.953331 183.394775 940.132957 
230 1 1 827.368584 182.599640 940.644234 
231 1 2 827.404480 181.465706 940.711966 
232 1 1 826.321870 181.274853 941.202152 
233 1 2 825.611664 181.321451 940.375408 
234 1 1 824.761419 180.747795 940.357048 
235 1 1 824.111759 180.340922 939.389355 
236 1 1 824.332670 179.478494 938.938047 
237 1 2 824.100165 179.038914 938.216276 
238 1 1 823.495819 178.389090 937.715882 
239 1 1 823.349297 177.799237 937.131895 
240 1 2 822.894839 176.949187 936.776153 
241 1 1 821.921409 176.615009 936.577001 
242 1 2 821.018439 176.936088 936.793268 
243 1 1 820.264464 177.036985 937.141554 
244 1 1 819.955284 177.863753 936.917130 
245 1 1 819.348289 178.440999 937.534709 
246 1 2 818.672021 179.005063 936.980740 
247 1 2 819.385910 179.333119 936.152083 
248 1 1 818.884329 178.841041 935.552605 
249 1 2 819.082061 178.021940 935.580160 
250 1 2 819.247328 177.680367 934.737608 
251 1 2 819.029530 176.809180 934.146959 
252 1 1 818.532954 176.368136 933.232493 
253 1 1 818.975411 176.058019 932.623283 
254 1 1 818.490097 175.117344 932.791162 
255 1 1 819.280206 174.513782 932.145680 
256 1 2 819.652596 173.739085 932.790265 
257 1 2 820.338646 173.095071 933.464858 
258 1 2 820.317103 172.023234 933.514594 
259 1 1 820.540571 171.720728 934.274029 
260 1 2 819.889245 170.789908 934.110358 
261 1 1 818.859526 170.190237 933.832646 
262 1 1 818.300266 170.790790 933.376562 
263 1 2 818.306302 171.570775 933.576855 
264 1 2 818.049104 172.375622 933.291482 
265 1 2 818.751198 172.731037 932.349110 
266 1 2 819.225529 172.538966 931.444584 
267 1 1 820.150508 172.495770 931.581130 
268 1 1 820.745924 172.056334 930.588363 
269 1 1 820.955101 171.747899 929.769213 
270 1 2 821.494162 171.984942 929.057228 
271 1 2 822.378155 171.696719 928.292367 
272 1 2 823.248439 172.283279 928.189740 
273 1 1 822.698465 172.957189 927.464113 
274 1 1 822.289908 173.696908 926.795715 
275 1 2 822.509323 174.602374 927.551756 
276 1 1 823.539201 175.057454 928.072011 
277 1 1 824.176830 175.197015 927.390814 
278 1 2 824.813752 175.389019 928.418934 
279 1 2 825.625803 175.140834 928.147700 
280 1 1 826.082818 174.920026 927.332228 
281 1 2 826.044761 175.147377 926.260820 
282 1 2 825.435350 175.664330 926.323957 
283 1 2 824.616825 176.337245 926.529029 
284 1 1 824.767675 176.558171 927.566015 
285 1 1 824.489703 176.907715 928.291461 
286 1 2 825.090362 176.777529 929.355483 
287 1 2 825.554970 176.452953 930.059545 
288 1 2 825.106183 176.581332 931.078832 
289 1 2 824.890616 177.679086 930.771972 
290 1 2 824.043348 177.195337 931.528495 
291 1 1 823.316071 177.826328 931.222111 
292 1 2 823.229798 177.866420 930.384515 
293 1 1 823.128935 178.723667 929.711496 
294 1 1 822.789969 179.377993 928.910724 
295 1 1 823.279208 179.927451 928.063295 
296 1 2 822.407617 180.482125 927.442457 
297 1 1 822.148073 180.803580 926.707080 
298 1 2 822.495849 181.606223 926.340962 
299 1 1 821.762050 182.354415 925.753706 
300 1 1 820.960002 182.893448 926.197705 
301 1 1 821.174389 183.567797 925.414814 
302 1 2 820.224763 183.932170 925.375878 
303 1 2 819.473791 183.528114 925.730073 
304 1 2 818.786642 182.743519 926.221116 
305 1 2 819.711966 182.354118 926.565032 
306 1 2 820.564553 181.874163 925.888513 
307 1 1 821.149654 181.718867 926.586001 
308 1 2 820.797891 180.951326 926.958846 
309 1 1 819.951442 180.909406 927.097742 
310 1 1 819.243266 180.018589 926.631761 
311 1 1 818.622633 179.353136 927.111625 
312 1 1 817.679098 179.493393 926.607013 
313 1 1 817.291110 180.557457 926.609461 
314 1 1 818.100085 180.972231 926.927802 
315 1 2 818.882495 181.229374 926.814811 
316 1 2 818.770443 181.780715 925.711640 
317 1 2 818.210718 181.133836 925.479116 
318 1 1 817.440022 181.480123 925.847456 
319 1 1 817.480413 182.342213 925.405332 
320 1 2 816.542589 182.382855 925.751592 
321 1 1 815.541224 182.088061 925.104254 
322 1 2 814.891311 181.898099 924.400305 
323 1 2 815.723920 181.781869 923.680206 
324 1 1 816.569716 181.314704 924.201321 
325 1 1 816.355181 180.302457 923.814148 
326 1 1 815.719446 179.772103 923.684460 
327 1 1 815.593622 179.815857 922.858760 
328 1 2 814.968978 179.090808 922.526484 
329 1 2 815.069637 178.693197 921.781323 
330 1 2 815.482803 177.895749 921.604785 
331 1 2 815.779516 177.585815 920.653682 
332 1 2 816.513880 178.227976 920.420920 
333 1 2 816.844401 178.989468 921.331330 
334 1 1 817.715915 178.558293 921.974914 
335 1 2 817.744926 177.652730 921.753441 
336 1 2 818.100729 177.294522 920.936570 
337 1 2 817.576959 176.679269 920.550438 
338 1 1 817.272042 175.617560 920.558086 
339 1 1 817.750554 175.087478 919.910685 
340 1 2 818.341832 174.503653 919.756481 
341 1 1 818.002121 173.679760 919.338173 
342 1 2 817.840123 172.642137 919.228269 
343 1 2 818.466091 172.156694 918.975555 
344 1 2 819.246870 172.130631 918.784594 
345 1 2 819.442653 172.659456 917.915409 
346 1 2 820.264260 172.194830 917.812555 
347 1 1 821.215656 172.207636 917.544981 
348 1 2 822.096347 172.704428 917.842586 
349 1 1 822.752965 172.526652 918.841639 
350 1 1 822.760643 171.568926 919.307865 
351 1 2 821.965087 171.605304 920.215918 
352 1 1 821.731797 171.762737 921.106973 
353 1 1 822.494650 171.637855 921.944414 
354 1 1 822.108014 171.206449 922.797830 
355 1 2 822.652971 171.963765 923.553066 
356 1 2 823.485534 171.805441 923.944453 
357 1 2 824.223267 171.366375 924.698044 
358 1 1 824.619822 170.833293 925.392123 
359 1 2 824.137944 171.347838 926.385424 
360 1 2 823.228858 170.714365 926.001941 
361 1 1 822.198569 171.397452 925.975344 
362 1 2 821.920927 170.834925 926.716147 
363 1 2 822.654949 170.038224 926.865606 
364 1 1 821.943925 169.264339 926.205780 
365 1 2 821.046965 169.105994 926.969204 
366 1 1 820.955602 169.801300 927.758940 
367 1 2 821.705127 170.272216 928.409030 
368 1 2 821.756948 170.617551 929.343825 
369 1 2 821.737950 169.832502 930.140599 
370 1 2 822.100934 169.183328 930.950270 
371 1 2 821.524210 169.165203 931.773925 
372 1 2 822.375594 169.263616 932.250523 
373 1 1 821.802466 169.687448 933.249361 
374 1 2 820.853230 170.445735 933.526121 
375 1 2 820.973339 170.886740 932.766710 
376 1 2 821.339216 171.448552 932.183535 
377 1 1 821.792230 172.188574 932.983825 
378 1 2 822.096771 173.043626 933.414170 
379 1 1 821.184326 173.761675 933.191034 
380 1 2 821.197812 174.578549 933.892358 
381 1 2 822.131095 174.850301 934.024244 
382 1 1 821.746690 175.616352 934.271450 
383 1 1 821.637776 175.558617 935.498746 
384 1 2 821.658086 174.339589 935.650035 
385 1 2 821.617557 173.192550 935.599112 
386 1 1 822.419822 173.248973 935.501532 
387 1 2 822.953606 172.327750 934.869845 
388 1 2 823.556313 172.952138 934.114283 
389 1 2 823.531867 172.471679 933.354244 
390 1 2 824.247276 172.391049 932.783224 
391 1 2 825.101801 172.574722 932.979727 
392 1 1 825.681732 171.944264 932.338820 
393 1 2 825.864440 171.475524 931.489837 
394 1 1 825.942302 170.680813 930.766478 
395 1 1 825.266112 169.985281 931.087683 
396 1 2 824.783117 169.198590 931.602252 
397 1 2 824.629945 168.710562 932.564446 
398 1 2 825.329890 168.182528 932.477813 
399 1 2 825.863894 168.172460 931.651930 
400 1 2 825.906159 167.174905 931.363070 
401 1 2 825.979214 166.396054 932.249687 
402 1 2 826.028639 166.461190 933.183679 
403 1 2 826.903781 165.750731 933.553734 
404 1 2 827.434092 164.785635 933.207572 
405 1 1 828.109207 163.972558 933.692532 
406 1 1 828.586242 164.602020 934.500302 
407 1 2 828.499677 163.618174 935.080743 
408 1 2 828.792715 163.524689 936.124433 
409 1 1 827.988845 164.187039 936.613120 
410 1 2 827.434156 164.767388 936.248793 
411 1 2 827.582815 164.679199 935.205850 
412 1 2 826.948015 164.198108 934.944731 
413 1 1 826.276470 163.899164 934.098730 
414 1 2 825.682669 164.215308 933.339207 
415 1 2 825.005338 164.274609 932.297131 
416 1 2 824.126383 164.768859 931.779980 
417 1 2 823.577960 163.973070 932.030879 
418 1 2 823.713352 163.355101 932.953655 
419 1 2 822.739525 163.025745 933.506272 
420 1 2 823.262377 162.121406 933.488452 
421 1 2 823.400726 161.101614 934.153917 
422 1 2 823.767602 160.655019 935.054207 
423 1 1 823.087667 160.205206 935.791180 
424 1 2 822.519172 159.729017 935.187606 
425 1 1 822.242164 159.380053 934.282394 
426 1 1 822.032725 159.435356 933.458861 
427 1 2 822.831623 159.444435 933.183081 
428 1 1 823.441459 159.143818 932.314869 
429 1 2 823.995410 160.012452 932.107865 
430 1 2 825.103308 159.707233 931.657115 
431 1 1 825.297589 158.990042 930.828202 
432 1 2 825.247566 157.984063 930.439387 
433 1 2 824.556475 157.683798 929.748192 
434 1 2 824.429386 156.696808 929.438231 
435 1 1 823.709607 156.150752 929.611332 
436 1 1 823.658300 156.384060 930.557692 
437 1 2 823.235374 157.320124 931.078777 
438 1 2 822.444075 157.348979 931.570055 
439 1 2 821.407797 157.831974 932.042015 
440 1 2 821.076955 158.760186 932.078164 
441 1 2 820.972820 159.171581 932.826911 
442 1 2 820.329695 158.617533 933.307855 
443 1 2 819.825916 158.117600 932.585754 
444 1 2 818.930381 157.852657 932.429249 
445 1 2 818.171227 158.235127 931.870388 
446 1 2 817.532215 157.517237 931.450053 
447 1 2 817.005719 157.043721 932.361113 
448 1 1 817.430033 158.002896 932.977560 
449 1 2 816.796466 158.604907 932.994916 
450 1 2 816.358440 158.731693 932.084109 
451 1 1 815.898868 158.947813 931.459871 
452 1 2 816.178417 159.549443 930.809961 
453 1 2 816.263070 159.132450 929.693417 
454 1 2 816.978533 158.496005 929.628657 
455 1 2 817.912943 158.767595 930.064998 
456 1 2 818.207913 159.617826 929.359249 
457 1 1 817.844282 160.260720 929.827754 
458 1 2 818.181549 160.996252 930.625068 
459 1 2 819.075933 161.477947 929.928486 
460 1 1 819.276067 162.419742 930.669341 
461 1 2 818.571105 162.471609 931.535258 
462 1 2 818.961177 161.839360 932.505023 
463 1 2 818.177477 161.467409 932.933189 
464 1 2 817.480056 160.767968 932.227302 
465 1 2 816.830100 159.919129 931.687426 
466 1 1 816.840156 160.596905 930.793854 
467 1 2 816.559282 161.124943 930.104831 
468 1 2 817.318973 161.881112 929.872396 
469 1 2 816.776699 162.830082 930.132228 
470 1 2 816.082363 162.756236 929.323106 
471 1 2 815.204340 161.981677 929.515702 
472 1 2 814.441691 162.208933 929.007309 
473 1 2 813.410596 162.369463 928.881484 
474 1 2 813.105185 161.948357 928.108640 
475 1 2 812.785501 161.877642 927.057598 
476 1 2 813.703906 161.510566 926.516248 
477 1 2 814.123572 161.944887 925.651708 
478 1 2 814.486303 161.112629 925.235887 
479 1 2 814.377126 160.511512 924.416074 
480 1 2 813.988260 159.641423 924.683569 
481 1 2 813.196478 159.768957 924.888900 
482 1 2 812.294888 159.984765 924.655129 
483 1 2 811.865773 160.935545 924.260421 
484 1 1 811.400058 160.734584 923.604727 
485 1 2 810.958580 161.399738 923.766442 
486 1 2 810.383233 162.400153 924.107358 
487 1 2 809.458391 162.049065 924.166659 
488 1 2 809.819694 161.164046 924.941334 
489 1 2 810.011896 160.406500 924.382904 
490 1 2 810.660735 159.435984 924.363814 
491 1 2 811.452303 158.867464 924.589935 
492 1 2 811.414884 158.265691 923.760085 
493 1 1 812.329225 157.821909 923.148665 
494 1 2 812.822401 157.790277 923.978167 
495 1 2 813.424177 158.750572 924.159575 
496 1 2 813.867379 158.609394 923.194488 
497 1 2 813.750334 159.316294 922.755229 
498 1 2 812.796506 159.479931 922.823252 
499 1 2 812.373577 160.036604 921.852370 
500 1 2 813.230964 160.674032 921.599353 
501 1 2 814.148701 160.521381 921.060088 
502 1 2 814.497342 159.862661 921.589978 
503 1 2 814.889315 158.992822 921.660469 
504 1 2 814.976959 158.546538 922.364708 
505 1 2 814.343645 157.718497 922.519749 
506 1 2 813.452672 157.453423 922.522871 
507 1 2 813.324607 158.317588 922.141997 
508 1 2 813.558132 158.466759 921.070312 
509 1 2 814.210715 158.818186 920.633079 
510 1 2 813.822214 159.390194 919.755116 
511 1 2 812.908847 158.930424 919.091244 
512 1 2 812.338029 158.425892 918.167376 


Bonds 

         1         1         1         2
         2         1         2         3
         3         1         3         4
         4         1         4         5
         5         1         5         6
         6         1         6         7
         7         1         7         8
         8         1         8         9
         9         1         9        10
        10         1        10        11
        11         1        11        12
        12         1        12        13
        13         1        13        14
        14         1        14        15
        15         1        15        16
        16         1        16        17
        17         1        17        18
        18         1        18        19
        19         1        19        20
        20         1        20        21
        21         1        21        22
        22         1        22        23
        23         1        23        24
        24         1        24        25
        25         1        25        26
        26         1        26        27
        27         1        27        28
        28         1        28        29
        29         1        29        30
        30         1        30        31
        31         1        31        32
        32         1        32        33
        33         1        33        34
        34         1        34        35
        35         1        35        36
        36         1        36        37
        37         1        37        38
        38         1        38        39
        39         1        39        40
        40         1        40        41
        41         1        41        42
        42         1        42        43
        43         1        43        44
        44         1        44        45
        45         1        45        46
        46         1        46        47
        47         1        47        48
        48         1        48        49
        49         1        49        50
        50         1        50        51
        51         1        51        52
        52         1        52        53
        53         1        53        54
        54         1        54        55
        55         1        55        56
        56         1        56        57
        57         1        57        58
        58         1        58        59
        59         1        59        60
        60         1        60        61
        61         1        61        62
        62         1        62        63
        63         1        63        64
        64         1        64        65
        65         1        65        66
        66         1        66        67
        67         1        67        68
        68         1        68        69
        69         1        69        70
        70         1        70        71
        71         1        71        72
        72         1        72        73
        73         1        73        74
        74         1        74        75
        75         1        75        76
        76         1        76        77
        77         1        77        78
        78         1        78        79
        79         1        79        80
        80         1        80        81
        81         1        81        82
        82         1        82        83
        83         1        83        84
        84         1        84        85
        85         1        85        86
        86         1        86        87
        87         1        87        88
        88         1        88        89
        89         1        89        90
        90         1        90        91
        91         1        91        92
        92         1        92        93
        93         1        93        94
        94         1        94        95
        95         1        95        96
        96         1        96        97
        97         1        97        98
        98         1        98        99
        99         1        99       100
       100         1       100       101
       101         1       101       102
       102         1       102       103
       103         1       103       104
       104         1       104       105
       105         1       105       106
       106         1       106       107
       107         1       107       108
       108         1       108       109
       109         1       109       110
       110         1       110       111
       111         1       111       112
       112         1       112       113
       113         1       113       114
       114         1       114       115
       115         1       115       116
       116         1       116       117
       117         1       117       118
       118         1       118       119
       119         1       119       120
       120         1       120       121
       121         1       121       122
       122         1       122       123
       123         1       123       124
       124         1       124       125
       125         1       125       126
       126         1       126       127
       127         1       127       128
       128         1       128       129
       129         1       129       130
       130         1       130       131
       131         1       131       132
       132         1       132       133
       133         1       133       134
       134         1       134       135
       135         1       135       136
       136         1       136       137
       137         1       137       138
       138         1       138       139
       139         1       139       140
       140         1       140       141
       141         1       141       142
       142         1       142       143
       143         1       143       144
       144         1       144       145
       145         1       145       146
       146         1       146       147
       147         1       147       148
       148         1       148       149
       149         1       149       150
       150         1       150       151
       151         1       151       152
       152         1       152       153
       153         1       153       154
       154         1       154       155
       155         1       155       156
       156         1       156       157
       157         1       157       158
       158         1       158       159
       159         1       159       160
       160         1       160       161
       161         1       161       162
       162         1       162       163
       163         1       163       164
       164         1       164       165
       165         1       165       166
       166         1       166       167
       167         1       167       168
       168         1       168       169
       169         1       169       170
       170         1       170       171
       171         1       171       172
       172         1       172       173
       173         1       173       174
       174         1       174       175
       175         1       175       176
       176         1       176       177
       177         1       177       178
       178         1       178       179
       179         1       179       180
       180         1       180       181
       181         1       181       182
       182         1       182       183
       183         1       183       184
       184         1       184       185