# Model for PE

     100     atoms
      99     bonds
      70     angles

         1     atom types
         1     bond types
         1     angle types

    0.0000   200.0000 xlo xhi
    0.0000   200.0000 ylo yhi
    0.0000   200.0000 zlo zhi

Masses

         1          14.02

Atoms

 100 1 1 75.8078 81.7879 75.443 
98 1 1 76.0538 83.5193 76.8977 
99 1 1 76.9283 82.6698 76.0532 
5 1 1 58.7055 54.3853 82.7909 
1 1 1 60.4594 50.8325 83.2303 
9 1 1 59.1392 58.5103 80.8616 
8 1 1 58.2314 57.2605 81.1284 
7 1 1 58.7418 56.0728 82.0899 
6 1 1 58.3085 54.9362 81.5364 
10 1 1 60.2282 59.1743 81.5523 
11 1 1 60.789 60.7397 81.8057 
14 1 1 63.2731 61.5648 81.678 
12 1 1 61.0979 61.8153 80.7886 
13 1 1 61.9871 62.5934 81.9241 
15 1 1 64.0589 62.3449 80.5843 
16 1 1 65.3902 61.9324 80.6871 
18 1 1 65.4498 63.7951 82.6332 
17 1 1 66.2279 62.8853 81.3756 
19 1 1 66.79 64.7059 82.5004 
97 1 1 76.298 83.8477 78.444 
96 1 1 75.1352 84.7052 78.883 
95 1 1 75.5073 86.1736 79.1917 
94 1 1 74.5105 87.234 79.4111 
92 1 1 75.6467 89.2491 80.7198 
93 1 1 75.5878 88.6104 79.512 
91 1 1 77.029 90.2868 81.1416 
90 1 1 77.524 89.6548 82.5162 
89 1 1 77.0228 88.3986 82.9694 
71 1 1 83.5258 92.4725 82.2837 
80 1 1 77.1653 95.6219 82.5678 
78 1 1 78.5839 95.3771 80.6056 
79 1 1 77.8754 96.4022 81.2923 
77 1 1 80.0776 95.1177 81.1341 
76 1 1 80.4888 96.3931 81.9646 
75 1 1 81.9568 95.564 82.0578 
74 1 1 82.0432 94.9669 80.7619 
73 1 1 83.6953 94.6627 81.0189 
72 1 1 83.8199 93.9845 82.6047 
3 1 1 59.7116 52.8931 84.3154 
4 1 1 58.4762 53.0335 83.376 
2 1 1 60.7596 51.6498 84.5225 
20 1 1 67.2696 65.0117 83.8254 
24 1 1 67.3998 69.3176 85.4526 
21 1 1 67.5569 66.5477 83.6251 
22 1 1 67.1694 66.7872 85.1843 
23 1 1 66.638 68.2609 85.5093 
25 1 1 67.9598 70.0502 86.7782 
26 1 1 69.5398 70.0077 87.0955 
31 1 1 74.4645 70.551 86.9163 
32 1 1 75.6646 69.5548 86.7673 
30 1 1 73.1542 70.2676 86.2328 
34 1 1 76.4791 69.7729 84.7368 
37 1 1 80.3371 70.2214 85.2962 
38 1 1 81.2569 68.8343 85.0748 
33 1 1 76.9495 70.1081 86.2448 
35 1 1 77.8202 69.5812 84.1024 
36 1 1 78.8841 69.4454 85.2048 
39 1 1 82.7791 69.0869 85.3282 
40 1 1 82.6828 70.6151 86.251 
41 1 1 84.0251 70.6605 86.3741 
27 1 1 69.7317 71.5105 87.5907 
28 1 1 71.364 71.91 87.4037 
29 1 1 72.1476 71.4232 85.9974 
42 1 1 84.2031 72.1465 86.0283 
43 1 1 84.758 72.9673 87.0465 
44 1 1 86.0947 73.0883 86.5384 
46 1 1 87.306 74.7289 88.0959 
45 1 1 87.451 73.4914 87.4601 
47 1 1 88.4113 75.6209 88.0072 
50 1 1 89.129 76.1213 86.2077 
48 1 1 87.6729 77.1607 87.7501 
49 1 1 88.0823 76.8984 86.0901 
51 1 1 90.2796 77.103 85.6461 
52 1 1 91.0801 78.3254 86.4295 
53 1 1 91.8973 78.7853 85.2394 
55 1 1 91.4123 80.727 85.5641 
54 1 1 91.1417 79.753 84.3979 
63 1 1 85.7312 87.3906 86.0481 
62 1 1 86.7527 86.4404 85.5923 
61 1 1 88.3078 86.7538 86.2748 
60 1 1 89.0175 85.6846 87.1296 
58 1 1 90.6298 84.0619 86.3606 
59 1 1 90.5254 85.1562 87.1773 
57 1 1 91.6052 83.0805 86.6452 
56 1 1 91.527 82.2704 85.3117 
84 1 1 76.4453 92.5465 85.0412 
85 1 1 75.5978 91.3591 85.2736 
86 1 1 76.2044 90.2723 86.1255 
88 1 1 76.0098 88.6278 84.2854 
87 1 1 76.8146 89.488 85.1997 
69 1 1 83.7085 92.3966 84.5387 
70 1 1 83.5593 91.7113 83.5005 
66 1 1 84.9083 90.3908 87.0342 
65 1 1 84.7583 88.8179 87.7682 
68 1 1 83.3533 92.0842 85.8163 
64 1 1 85.7651 87.7851 87.5006 
67 1 1 83.642 90.7495 86.2788 
82 1 1 76.4505 94.7612 84.6885 
83 1 1 76.7765 93.9462 85.7301 
81 1 1 77.7747 94.8458 83.6673 

Bonds

         1         1         1         2
         2         1         2         3
         3         1         3         4
         4         1         4         5
         5         1         5         6
         6         1         6         7
         7         1         7         8
         8         1         8         9
         9         1         9        10
        10         1        10        11
        11         1        11        12
        12         1        12        13
        13         1        13        14
        14         1        14        15
        15         1        15        16
        16         1        16        17
        17         1        17        18
        18         1        18        19
        19         1        19        20
        20         1        20        21
        21         1        21        22
        22         1        22        23
        23         1        23        24
        24         1        24        25
        25         1        25        26
        26         1        26        27
        27         1        27        28
        28         1        28        29
        29         1        29        30
        30         1        30        31
        31         1        31        32
        32         1        32        33
        33         1        33        34
        34         1        34        35
        35         1        35        36
        36         1        36        37
        37         1        37        38
        38         1        38        39
        39         1        39        40
        40         1        40        41
        41         1        41        42
        42         1        42        43
        43         1        43        44
        44         1        44        45
        45         1        45        46
        46         1        46        47
        47         1        47        48
        48         1        48        49
        49         1        49        50
        50         1        50        51
        51         1        51        52
        52         1        52        53
        53         1        53        54
        54         1        54        55
        55         1        55        56
        56         1        56        57
        57         1        57        58
        58         1        58        59
        59         1        59        60
        60         1        60        61
        61         1        61        62
        62         1        62        63
        63         1        63        64
        64         1        64        65
        65         1        65        66
        66         1        66        67
        67         1        67        68
        68         1        68        69
        69         1        69        70
        70         1        70        71
        71         1        71        72
        72         1        72        73
        73         1        73        74
        74         1        74        75
        75         1        75        76
        76         1        76        77
        77         1        77        78
        78         1        78        79
        79         1        79        80
        80         1        80        81
        81         1        81        82
        82         1        82        83
        83         1        83        84
        84         1        84        85
        85         1        85        86
        86         1        86        87
        87         1        87        88
        88         1        88        89
        89         1        89        90
        90         1        90        91
        91         1        91        92
        92         1        92        93
        93         1        93        94
        94         1        94        95
        95         1        95        96
        96         1        96        97
        97         1        97        98
        98         1        98        99
        99         1        99       100

Angles

         1         1         1         2         3
         2         1         2         3         4
         3         1         3         4         5
         4         1         4         5         6
         5         1         5         6         7
         6         1         6         7         8
         7         1         7         8         9
         8         1         8         9        10
         9         1         9        10        11
        10         1        10        11        12
        11         1        11        12        13
        12         1        12        13        14
        13         1        13        14        15
        14         1        14        15        16
        15         1        15        16        17
        16         1        16        17        18
        17         1        17        18        19
        18         1        18        19        20
        19         1        19        20        21
        20         1        20        21        22
        21         1        21        22        23
        22         1        22        23        24
        23         1        23        24        25
        24         1        24        25        26
        25         1        25        26        27
        26         1        26        27        28
        27         1        27        28        29
        28         1        28        29        30
        29         1        29        30        31
        30         1        30        31        32
        31         1        31        32        33
        32         1        32        33        34
        33         1        33        34        35
        34         1        34        35        36
        35         1        35        36        37
        64         1        64        65        66
        65         1        65        66        67
        66         1        66        67        68
        67         1        67        68        69
        68         1        68        69        70
        69         1        69        70        71
        70         1        70        71        72
        71         1        71        72        73
        72         1        72        73        74
        73         1        73        74        75
        74         1        74        75        76
        75         1        75        76        77
        76         1        76        77        78
        77         1        77        78        79
        78         1        78        79        80
        79         1        79        80        81
        80         1        80        81        82
        81         1        81        82        83
        82         1        82        83        84
        83         1        83        84        85
        84         1        84        85        86
        85         1        85        86        87
        86         1        86        87        88
        87         1        87        88        89
        88         1        88        89        90
        89         1        89        90        91
        90         1        90        91        92
        91         1        91        92        93
        92         1        92        93        94
        93         1        93        94        95
        94         1        94        95        96
        95         1        95        96        97
        96         1        96        97        98
        97         1        97        98        99
        98         1        98        99       100

