# Model for PE

     100     atoms
      99     bonds
      70     angles

         1     atom types
         1     bond types
         1     angle types

    0.0000   200.0000 xlo xhi
    0.0000   200.0000 ylo yhi
    0.0000   200.0000 zlo zhi

Masses

         1          14.02

Atoms

4 1 1 89.807 99.5841 59.1218 
5 1 1 89.6132 98.1926 60.1281 
6 1 1 89.3324 97.2267 60.9351 
1 1 1 91.0703 103.373 56.1742 
2 1 1 90.5139 102.207 57.2346 
3 1 1 90.0645 100.838 58.2114 
13 1 1 84.2594 88.4146 66.2037 
9 1 1 87.6844 93.4153 63.1757 
10 1 1 86.8122 92.0524 63.8673 
12 1 1 85.1693 89.5321 65.2567 
11 1 1 85.9818 90.6325 64.5309 
7 1 1 88.8244 95.8947 61.718 
8 1 1 88.1402 94.5647 62.4019 
19 1 1 80.1551 82.8707 71.9399 
14 1 1 83.1652 87.3446 66.7655 
18 1 1 80.5224 83.8281 70.709 
15 1 1 82.3258 86.403 67.6545 
16 1 1 81.6835 85.5532 68.6735 
17 1 1 81.0143 84.7292 69.6155 
25 1 1 77.7766 76.0735 77.257 
24 1 1 78.367 77.1142 76.3836 
20 1 1 79.666 81.7943 72.8733 
21 1 1 79.5771 80.6566 73.7711 
23 1 1 78.8025 78.1598 75.4237 
22 1 1 79.2322 79.2827 74.5504 
29 1 1 75.4112 72.2004 81.1134 
30 1 1 74.7823 71.0856 82.0247 
31 1 1 73.8275 69.8353 82.5587 
26 1 1 77.3602 74.9142 78.2013 
28 1 1 76.126 73.2117 80.0971 
27 1 1 76.8119 73.9885 79.1706 
55 1 1 61.8885 63.1553 88.8535 
39 1 1 71.2736 61.5797 88.3057 
36 1 1 69.8653 64.038 85.8661 
34 1 1 71.2408 66.509 84.4517 
35 1 1 70.4402 65.3812 84.9734 
38 1 1 70.7967 62.2952 86.9678 
37 1 1 69.3192 62.7783 86.6954 
33 1 1 71.9769 67.738 84.0793 
32 1 1 73.0239 68.7539 83.4545 
58 1 1 60.825 61.4985 91.0485 
59 1 1 59.3598 61.549 91.6303 
61 1 1 58.0325 62.754 93.198 
60 1 1 58.2584 62.8084 91.6969 
62 1 1 58.8959 61.7617 94.1362 
53 1 1 61.5416 66.0992 89.0952 
54 1 1 61.9418 64.6118 89.193 
56 1 1 62.6417 63.0646 90.0949 
57 1 1 62.1509 61.9723 91.1887 
43 1 1 69.5584 64.6712 89.7543 
44 1 1 68.2906 65.6443 89.356 
42 1 1 69.3135 63.552 90.9047 
40 1 1 70.2662 61.5376 89.3442 
41 1 1 70.4214 62.6216 90.2376 
51 1 1 62.7584 67.5455 90.8602 
52 1 1 61.3611 67.3161 90.0057 
49 1 1 65.1154 68.2707 91.9835 
50 1 1 64.2582 67.3189 91.2641 
48 1 1 66.5762 68.2023 91.6971 
45 1 1 68.3753 66.8696 90.1536 
47 1 1 67.9341 68.1115 90.6455 
46 1 1 68.2798 68.2574 89.3951 
64 1 1 59.083 63.8532 95.1155 
63 1 1 59.7577 62.6394 95.2486 
65 1 1 60.4453 64.4588 95.9527 
66 1 1 61.9595 64.7349 96.4958 
67 1 1 63.0144 65.2214 97.3298 
68 1 1 64.1373 65.8605 98.1814 
69 1 1 65.3027 66.4472 99.1388 
70 1 1 66.4135 67.1583 100.115 
71 1 1 67.2178 67.9605 100.836 
72 1 1 68.3285 68.8383 101.646 
73 1 1 69.5958 69.3716 102.585 
74 1 1 70.7044 69.8135 103.545 
75 1 1 71.8321 70.3931 104.513 
76 1 1 73.0777 70.8397 105.358 
77 1 1 74.3508 71.1407 106.049 
78 1 1 75.8867 71.3717 106.953 
79 1 1 77.0211 71.7321 107.698 
80 1 1 78.2267 72.0593 108.454 
81 1 1 79.461 72.5745 109.149 
82 1 1 80.5511 73.0739 110.056 
83 1 1 81.8596 73.6493 110.956 
84 1 1 83.0377 74.176 111.645 
85 1 1 84.1141 74.9846 112.568 
86 1 1 84.9726 75.9734 113.167 
87 1 1 85.6684 77.1518 113.921 
88 1 1 86.2748 78.1333 114.884 
89 1 1 86.7134 79.3122 115.734 
90 1 1 86.8593 80.3623 116.636 
91 1 1 87.0474 81.4853 117.781 
92 1 1 87.2987 82.7971 118.702 
93 1 1 87.4631 83.8573 119.714 
95 1 1 88.0755 85.8973 121.784 
94 1 1 87.6945 85.0164 120.668 
96 1 1 88.4294 86.6585 122.716 
97 1 1 88.6628 87.7801 123.91 
98 1 1 88.875 88.8587 124.815 
99 1 1 89.0191 90.1991 125.58 
100 1 1 89.0481 91.4673 126.333 

Bonds

         1         1         1         2
         2         1         2         3
         3         1         3         4
         4         1         4         5
         5         1         5         6
         6         1         6         7
         7         1         7         8
         8         1         8         9
         9         1         9        10
        10         1        10        11
        11         1        11        12
        12         1        12        13
        13         1        13        14
        14         1        14        15
        15         1        15        16
        16         1        16        17
        17         1        17        18
        18         1        18        19
        19         1        19        20
        20         1        20        21
        21         1        21        22
        22         1        22        23
        23         1        23        24
        24         1        24        25
        25         1        25        26
        26         1        26        27
        27         1        27        28
        28         1        28        29
        29         1        29        30
        30         1        30        31
        31         1        31        32
        32         1        32        33
        33         1        33        34
        34         1        34        35
        35         1        35        36
        36         1        36        37
        37         1        37        38
        38         1        38        39
        39         1        39        40
        40         1        40        41
        41         1        41        42
        42         1        42        43
        43         1        43        44
        44         1        44        45
        45         1        45        46
        46         1        46        47
        47         1        47        48
        48         1        48        49
        49         1        49        50
        50         1        50        51
        51         1        51        52
        52         1        52        53
        53         1        53        54
        54         1        54        55
        55         1        55        56
        56         1        56        57
        57         1        57        58
        58         1        58        59
        59         1        59        60
        60         1        60        61
        61         1        61        62
        62         1        62        63
        63         1        63        64
        64         1        64        65
        65         1        65        66
        66         1        66        67
        67         1        67        68
        68         1        68        69
        69         1        69        70
        70         1        70        71
        71         1        71        72
        72         1        72        73
        73         1        73        74
        74         1        74        75
        75         1        75        76
        76         1        76        77
        77         1        77        78
        78         1        78        79
        79         1        79        80
        80         1        80        81
        81         1        81        82
        82         1        82        83
        83         1        83        84
        84         1        84        85
        85         1        85        86
        86         1        86        87
        87         1        87        88
        88         1        88        89
        89         1        89        90
        90         1        90        91
        91         1        91        92
        92         1        92        93
        93         1        93        94
        94         1        94        95
        95         1        95        96
        96         1        96        97
        97         1        97        98
        98         1        98        99
        99         1        99       100

Angles

         1         1         1         2         3
         2         1         2         3         4
         3         1         3         4         5
         4         1         4         5         6
         5         1         5         6         7
         6         1         6         7         8
         7         1         7         8         9
         8         1         8         9        10
         9         1         9        10        11
        10         1        10        11        12
        11         1        11        12        13
        12         1        12        13        14
        13         1        13        14        15
        14         1        14        15        16
        15         1        15        16        17
        16         1        16        17        18
        17         1        17        18        19
        18         1        18        19        20
        19         1        19        20        21
        20         1        20        21        22
        21         1        21        22        23
        22         1        22        23        24
        23         1        23        24        25
        24         1        24        25        26
        25         1        25        26        27
        26         1        26        27        28
        27         1        27        28        29
        28         1        28        29        30
        29         1        29        30        31
        30         1        30        31        32
        31         1        31        32        33
        32         1        32        33        34
        33         1        33        34        35
        34         1        34        35        36
        35         1        35        36        37
        64         1        64        65        66
        65         1        65        66        67
        66         1        66        67        68
        67         1        67        68        69
        68         1        68        69        70
        69         1        69        70        71
        70         1        70        71        72
        71         1        71        72        73
        72         1        72        73        74
        73         1        73        74        75
        74         1        74        75        76
        75         1        75        76        77
        76         1        76        77        78
        77         1        77        78        79
        78         1        78        79        80
        79         1        79        80        81
        80         1        80        81        82
        81         1        81        82        83
        82         1        82        83        84
        83         1        83        84        85
        84         1        84        85        86
        85         1        85        86        87
        86         1        86        87        88
        87         1        87        88        89
        88         1        88        89        90
        89         1        89        90        91
        90         1        90        91        92
        91         1        91        92        93
        92         1        92        93        94
        93         1        93        94        95
        94         1        94        95        96
        95         1        95        96        97
        96         1        96        97        98
        97         1        97        98        99
        98         1        98        99       100

