LAMMPS data file. CGCMM style. atom_style full generated by VMD/TopoTools v1.5 on Mon Jan 11 16:53:21 +0300 2016
 184 atoms
 183 bonds
 182 angles
 0 dihedrals
 0 impropers
 2 atom types
 1 bond types
 1 angle types21
 0 dihedral types
 0 improper types
 -20.500000 20.500000  xlo xhi
 -20.500000 20.500000  ylo yhi
 -20.500000 20.500000  zlo zhi

# Pair Coeffs
#
# 1  C.3

# Bond Coeffs
#
# 1  

# Angle Coeffs
#
# 1  C.3-C.3-C.3

 Masses

 1 12.011000 # C.3
 2 5.0

 Atoms

1 1 1 0.000000 17.179800 -12.770300 12.016900 # C.3 LIG1
2 1 1 0.000000 15.701500 -13.154500 12.111800 # C.3 LIG1
3 1 1 0.000000 14.229800 -13.561200 12.153200 # C.3 LIG1
4 1 1 0.000000 12.772400 -13.997200 12.027100 # C.3 LIG1
5 1 1 0.000000 11.377300 -14.406100 11.582500 # C.3 LIG1
6 1 1 0.000000 10.158300 -14.642500 10.705400 # C.3 LIG1
7 1 1 0.000000 9.298200 -14.510700 9.471300 # C.3 LIG1
8 1 1 0.000000 8.854500 -13.905200 8.151500 # C.3 LIG1
9 1 1 0.000000 8.652600 -12.905500 7.044800 # C.3 LIG1
10 1 1 0.000000 8.350500 -11.661000 6.225300 # C.3 LIG1
11 1 1 0.000000 7.660100 -10.456700 5.661700 # C.3 LIG1
12 1 1 0.000000 6.463300 -9.626500 5.242800 # C.3 LIG1
13 1 1 0.000000 5.029200 -9.418200 4.861600 # C.3 LIG1
14 1 1 0.000000 3.612400 -9.590400 4.335400 # C.3 LIG1
15 1 1 0.000000 2.340400 -9.673800 3.532200 # C.3 LIG1
16 1 1 0.000000 1.345500 -9.178300 2.504200 # C.3 LIG1
17 1 1 0.000000 0.922600 -7.962400 1.721600 # C.3 LIG1
18 1 1 0.000000 1.034700 -6.454300 1.622400 # C.3 LIG1
19 1 1 0.000000 1.284700 -5.069300 2.188700 # C.3 LIG1
20 1 1 0.000000 1.245600 -3.903100 3.162800 # C.3 LIG1
21 1 1 0.000000 0.584600 -3.029800 4.213600 # C.3 LIG1
22 1 1 0.000000 -0.689100 -2.719500 4.973700 # C.3 LIG1
23 1 1 0.000000 -2.183800 -2.947900 5.113500 # C.3 LIG1
24 1 1 0.000000 -3.571300 -3.365200 4.640600 # C.3 LIG1
25 1 1 0.000000 -4.735300 -3.592600 3.686600 # C.3 LIG1
26 1 1 0.000000 -5.443500 -3.363600 2.360500 # C.3 LIG1
27 1 1 0.000000 -5.505700 -2.639600 1.022800 # C.3 LIG1
28 1 1 0.000000 -4.985800 -1.621600 0.011500 # C.3 LIG1
29 1 1 0.000000 -4.096300 -0.528700 -0.584500 # C.3 LIG1
30 1 1 0.000000 -2.963200 0.474300 -0.823700 # C.3 LIG1
31 1 1 0.000000 -1.680200 1.311800 -0.769900 # C.3 LIG1
32 1 1 0.000000 -0.338500 1.979100 -0.436000 # C.3 LIG1
33 1 1 0.000000 1.019200 2.203400 0.226100 # C.3 LIG1
34 1 1 0.000000 17.368900 -14.725900 7.324900 # C.3 LIG1
35 1 1 0.000000 16.460699 -11.977800 8.143900 # C.3 LIG1
36 1 1 0.000000 14.068000 -10.386800 9.012400 # C.3 LIG1
37 1 1 0.000000 16.976400 -16.006800 6.597300 # C.3 LIG1
38 1 1 0.000000 11.296500 -10.441800 10.227500 # C.3 LIG1
39 1 1 0.000000 17.160101 -13.290500 7.801000 # C.3 LIG1
40 1 1 0.000000 8.370000 -10.516200 10.885100 # C.3 LIG1
41 1 1 0.000000 15.384100 -10.965400 8.515500 # C.3 LIG1
42 1 1 0.000000 6.400300 -8.635800 9.899100 # C.3 LIG1
43 1 1 0.000000 12.678400 -10.263900 9.617200 # C.3 LIG1
44 1 1 0.000000 -2.190000 4.347400 -1.923200 # C.3 LIG1
45 1 1 0.000000 -1.714600 3.954500 -3.329000 # C.3 LIG1
46 1 1 0.000000 6.156700 -6.178000 8.141600 # C.3 LIG1
47 1 1 0.000000 9.869000 -10.640800 10.709200 # C.3 LIG1
48 1 1 0.000000 4.422300 -4.611400 6.439300 # C.3 LIG1
49 1 1 0.000000 7.076400 -9.798200 10.587700 # C.3 LIG1
50 1 1 0.000000 -3.102300 4.049400 0.967400 # C.3 LIG1
51 1 1 0.000000 -2.693300 4.391600 -0.472500 # C.3 LIG1
52 1 1 0.000000 1.518600 -5.292100 6.370900 # C.3 LIG1
53 1 1 0.000000 6.248400 -7.383600 9.057800 # C.3 LIG1
54 1 1 0.000000 -1.314000 -5.967600 7.205900 # C.3 LIG1
55 1 1 0.000000 5.623000 -5.137900 7.183400 # C.3 LIG1
56 1 1 0.000000 -3.725700 2.586300 3.586000 # C.3 LIG1
57 1 1 0.000000 -3.941300 -4.739200 7.881500 # C.3 LIG1
58 1 1 0.000000 -3.419900 3.414700 2.328800 # C.3 LIG1
59 1 1 0.000000 2.937600 -4.771500 6.200000 # C.3 LIG1
60 1 1 0.000000 -5.001400 -1.990800 7.349300 # C.3 LIG1
61 1 1 0.000000 0.124100 -5.781000 6.740200 # C.3 LIG1
62 1 1 0.000000 -4.546200 0.559000 5.737800 # C.3 LIG1
63 1 1 0.000000 -4.116900 1.628300 4.722700 # C.3 LIG1
64 1 1 0.000000 -2.736300 -5.640700 7.641400 # C.3 LIG1
65 1 1 0.000000 -4.718000 -3.427800 7.792900 # C.3 LIG1
66 1 1 0.000000 -4.889400 -0.641400 6.630100 # C.3 LIG1
67 1 1 0.000000 -3.919800 1.187400 -7.365500 # C.3 LIG1
68 1 1 0.000000 -6.468400 0.427300 -6.006900 # C.3 LIG1
69 1 1 0.000000 -7.754700 0.069400 -3.283100 # C.3 LIG1
70 1 1 0.000000 -2.584800 1.834100 -7.021800 # C.3 LIG1
71 1 1 0.000000 -7.833200 0.302600 -0.266900 # C.3 LIG1
72 1 1 0.000000 -5.318500 0.731400 -6.964900 # C.3 LIG1
73 1 1 0.000000 -7.090400 1.712100 2.293600 # C.3 LIG1
74 1 1 0.000000 -7.274600 0.210000 -4.726700 # C.3 LIG1
75 1 1 0.000000 -7.174100 4.047800 4.152700 # C.3 LIG1
76 1 1 0.000000 -7.936800 0.067300 -1.768200 # C.3 LIG1
77 1 1 0.000000 -21.504801 12.830200 12.169000 # C.3 LIG1
78 1 1 0.000000 -21.851200 13.671100 10.943800 # C.3 LIG1
79 1 1 0.000000 -9.788900 4.974300 4.752800 # C.3 LIG1
80 1 1 0.000000 -7.491400 0.845000 1.112400 # C.3 LIG1
81 1 1 0.000000 -12.697100 4.174800 4.560800 # C.3 LIG1
82 1 1 0.000000 -6.888500 2.838100 3.291600 # C.3 LIG1
83 1 1 0.000000 -20.867100 10.425200 13.909300 # C.3 LIG1
84 1 1 0.000000 -21.150000 11.723700 13.158300 # C.3 LIG1
85 1 1 0.000000 -14.809900 4.438500 6.450700 # C.3 LIG1
86 1 1 0.000000 -8.283500 4.901800 4.701100 # C.3 LIG1
87 1 1 0.000000 -14.503400 5.367500 9.290700 # C.3 LIG1
88 1 1 0.000000 -11.242100 4.589300 4.556700 # C.3 LIG1
89 1 1 0.000000 -20.400200 7.548400 14.801900 # C.3 LIG1
90 1 1 0.000000 -14.435900 4.924700 12.220700 # C.3 LIG1
91 1 1 0.000000 -20.651400 9.012000 14.446200 # C.3 LIG1
92 1 1 0.000000 -14.057200 4.071100 5.198900 # C.3 LIG1
93 1 1 0.000000 -16.387899 3.912900 14.222400 # C.3 LIG1
94 1 1 0.000000 -14.832800 4.985400 7.861400 # C.3 LIG1
95 1 1 0.000000 -19.074800 4.852500 14.991900 # C.3 LIG1
96 1 1 0.000000 -19.934601 6.108300 14.991800 # C.3 LIG1
97 1 1 0.000000 -14.252000 5.360700 10.783400 # C.3 LIG1
98 1 1 0.000000 -15.183100 4.312600 13.389400 # C.3 LIG1
99 1 1 0.000000 -17.804701 4.056200 14.748400 # C.3 LIG1
100 1 1 0.000000 -1.478900 3.340000 -4.712700 # C.3 LIG1
101 1 1 0.000000 -1.719800 2.597900 -6.026500 # C.3 LIG1
102 1 1 0.000000 -22.063000 14.194800 9.526900 # C.3 LIG1
103 1 1 0.000000 -22.021099 14.386400 8.014300 # C.3 LIG1
104 1 1 0.000000 -21.663099 14.277900 6.535300 # C.3 LIG1
105 1 1 0.000000 -21.003401 13.939700 5.201000 # C.3 LIG1
106 1 1 0.000000 -20.110901 13.448300 4.063000 # C.3 LIG1
107 1 1 0.000000 -19.070700 12.856000 3.112200 # C.3 LIG1
108 1 1 0.000000 -17.958900 12.193900 2.296500 # C.3 LIG1
109 1 1 0.000000 -16.827200 11.506000 1.530700 # C.3 LIG1
110 1 1 0.000000 -15.709000 10.832400 0.732700 # C.3 LIG1
111 1 1 0.000000 -14.629300 10.200100 -0.148300 # C.3 LIG1
112 1 1 0.000000 -13.599600 9.622100 -1.122300 # C.3 LIG1
113 1 1 0.000000 -12.605400 9.089600 -2.158500 # C.3 LIG1
114 1 1 0.000000 -11.598900 8.567500 -3.188800 # C.3 LIG1
115 1 1 0.000000 -10.508500 7.997700 -4.101500 # C.3 LIG1
116 1 1 0.000000 -9.280700 7.321000 -4.714700 # C.3 LIG1
117 1 1 0.000000 -7.974500 6.532800 -4.763900 # C.3 LIG1
118 1 1 0.000000 -6.880600 5.772300 -4.027800 # C.3 LIG1
119 1 1 0.000000 -6.429500 5.314200 -2.650100 # C.3 LIG1
120 1 1 0.000000 -6.757000 5.314900 -1.162800 # C.3 LIG1
121 1 1 0.000000 -7.604800 5.681400 0.053200 # C.3 LIG1
122 1 1 0.000000 -8.672200 6.246300 0.991800 # C.3 LIG1
123 1 1 0.000000 -9.775600 6.881500 1.840000 # C.3 LIG1
124 1 1 0.000000 -10.800700 7.479300 2.804200 # C.3 LIG1
125 1 1 0.000000 -11.654900 7.950900 3.980500 # C.3 LIG1
126 1 1 0.000000 -12.312600 8.317300 5.310100 # C.3 LIG1
127 1 1 0.000000 -12.855800 8.679200 6.692300 # C.3 LIG1
128 1 1 0.000000 -13.449400 9.122500 8.029200 # C.3 LIG1
129 1 1 0.000000 -14.294700 9.687300 9.167400 # C.3 LIG1
130 1 1 0.000000 -15.514900 10.316800 9.824100 # C.3 LIG1
131 1 1 0.000000 15.998200 -16.727400 5.680300 # C.3 LIG1
132 1 1 0.000000 14.730900 -16.604200 4.845300 # C.3 LIG1
133 1 1 0.000000 13.568200 -15.757800 4.335000 # C.3 LIG1
134 1 1 0.000000 12.686900 -14.517700 4.174400 # C.3 LIG1
135 1 1 0.000000 12.050800 -13.125700 4.247700 # C.3 LIG1
136 1 1 0.000000 11.552100 -11.684300 4.405500 # C.3 LIG1
137 1 1 0.000000 11.078100 -10.229100 4.515200 # C.3 LIG1
138 1 1 0.000000 10.517700 -8.801600 4.531600 # C.3 LIG1
139 1 1 0.000000 9.816400 -7.439200 4.476200 # C.3 LIG1
140 1 1 0.000000 8.981100 -6.160000 4.344800 # C.3 LIG1
141 1 1 0.000000 8.027700 -4.985200 4.095100 # C.3 LIG1
142 1 1 0.000000 6.970400 -3.966100 3.656100 # C.3 LIG1
143 1 1 0.000000 5.844900 -3.209700 2.945700 # C.3 LIG1
144 1 1 0.000000 4.758200 -2.885600 1.921700 # C.3 LIG1
145 1 1 0.000000 3.905500 -3.165300 0.688000 # C.3 LIG1
146 1 1 0.000000 3.507300 -4.067300 -0.473200 # C.3 LIG1
147 1 1 0.000000 3.744800 -5.359000 -1.244900 # C.3 LIG1
148 1 1 0.000000 4.537500 -6.639900 -1.489700 # C.3 LIG1
149 1 1 0.000000 5.657400 -7.664800 -1.302800 # C.3 LIG1
150 1 1 0.000000 6.923300 -8.401500 -0.854800 # C.3 LIG1
151 1 1 0.000000 8.245200 -8.927000 -0.284200 # C.3 LIG1
152 1 1 0.000000 9.589200 -9.347700 0.321100 # C.3 LIG1
153 1 1 0.000000 10.944200 -9.766100 0.902400 # C.3 LIG1
154 1 1 0.000000 12.301000 -10.273400 1.403300 # C.3 LIG1
155 1 1 0.000000 13.640700 -10.948300 1.711600 # C.3 LIG1
156 1 1 0.000000 14.902000 -11.789300 1.533900 # C.3 LIG1
157 1 1 0.000000 15.805000 -12.581900 0.601300 # C.3 LIG1
158 1 1 0.000000 15.938400 -12.927800 -0.872300 # C.3 LIG1
159 1 1 0.000000 15.296600 -12.655500 -2.227200 # C.3 LIG1
160 1 1 0.000000 14.250800 -11.949900 -3.091400 # C.3 LIG1
161 1 1 0.000000 13.097000 -11.031800 -3.509500 # C.3 LIG1
162 1 1 0.000000 11.955600 -10.017900 -3.657900 # C.3 LIG1
163 1 1 0.000000 10.853100 -8.952400 -3.694200 # C.3 LIG1
164 1 1 0.000000 9.783000 -7.854900 -3.728500 # C.3 LIG1
165 1 1 0.000000 8.729100 -6.746700 -3.827400 # C.3 LIG1
166 1 1 0.000000 7.670100 -5.657600 -4.025100 # C.3 LIG1
167 1 1 0.000000 6.578300 -4.626400 -4.325400 # C.3 LIG1
168 1 1 0.000000 5.416200 -3.699600 -4.692600 # C.3 LIG1
169 1 1 0.000000 4.140800 -2.929500 -5.042400 # C.3 LIG1
170 1 1 0.000000 2.729400 -2.373500 -5.234700 # C.3 LIG1
171 1 1 0.000000 1.237500 -2.086900 -5.081200 # C.3 LIG1
172 1 1 0.000000 -0.130600 -2.088400 -4.409400 # C.3 LIG1
173 1 1 0.000000 -1.039600 -2.293300 -3.205400 # C.3 LIG1
174 1 1 0.000000 -1.229800 -2.488000 -1.707400 # C.3 LIG1
175 1 1 0.000000 -0.731200 -2.422600 -0.268500 # C.3 LIG1
176 1 1 0.000000 0.214600 -1.973900 0.841000 # C.3 LIG1
177 1 1 0.000000 1.293600 -1.138600 1.532300 # C.3 LIG1
178 1 1 0.000000 -16.946600 10.803700 9.682000 # C.3 LIG1
179 1 1 0.000000 -18.150000 10.923700 8.760300 # C.3 LIG1
180 1 1 0.000000 -18.877899 10.666400 7.444500 # C.3 LIG1
181 1 1 0.000000 -19.240499 10.169400 6.043900 # C.3 LIG1
182 1 1 0.000000 -19.457500 9.572000 4.650600 # C.3 LIG1
183 1 1 0.000000 2.054200 1.537400 1.115200 # C.3 LIG1
184 1 1 0.000000 2.114500 0.133700 1.681900 # C.3 LIG1

 Bonds

1 1 1 2
2 1 2 3
3 1 3 4
4 1 4 5
5 1 5 6
6 1 6 7
7 1 7 8
8 1 8 9
9 1 9 10
10 1 10 11
11 1 11 12
12 1 12 13
13 1 13 14
14 1 14 15
15 1 15 16
16 1 16 17
17 1 17 18
18 1 18 19
19 1 19 20
20 1 20 21
21 1 21 22
22 1 22 23
23 1 23 24
24 1 24 25
25 1 25 26
26 1 26 27
27 1 27 28
28 1 28 29
29 1 29 30
30 1 30 31
31 1 31 32
32 1 32 33
33 1 33 183
34 1 34 39
35 1 34 37
36 1 35 41
37 1 35 39
38 1 36 43
39 1 36 41
40 1 37 131
41 1 38 47
42 1 38 43
43 1 40 49
44 1 40 47
45 1 42 53
46 1 42 49
47 1 44 45
48 1 44 51
49 1 45 100
50 1 46 55
51 1 46 53
52 1 48 59
53 1 48 55
54 1 50 51
55 1 50 58
56 1 52 61
57 1 52 59
58 1 54 64
59 1 54 61
60 1 56 58
61 1 56 63
62 1 57 65
63 1 57 64
64 1 60 66
65 1 60 65
66 1 62 63
67 1 62 66
68 1 67 72
69 1 67 70
70 1 68 74
71 1 68 72
72 1 69 76
73 1 69 74
74 1 70 101
75 1 71 80
76 1 71 76
77 1 73 82
78 1 73 80
79 1 75 86
80 1 75 82
81 1 77 78
82 1 77 84
83 1 78 102
84 1 79 88
85 1 79 86
86 1 81 92
87 1 81 88
88 1 83 84
89 1 83 91
90 1 85 94
91 1 85 92
92 1 87 97
93 1 87 94
94 1 89 91
95 1 89 96
96 1 90 98
97 1 90 97
98 1 93 99
99 1 93 98
100 1 95 96
101 1 95 99
102 1 100 101
103 1 102 103
104 1 103 104
105 1 104 105
106 1 105 106
107 1 106 107
108 1 107 108
109 1 108 109
110 1 109 110
111 1 110 111
112 1 111 112
113 1 112 113
114 1 113 114
115 1 114 115
116 1 115 116
117 1 116 117
118 1 117 118
119 1 118 119
120 1 119 120
121 1 120 121
122 1 121 122
123 1 122 123
124 1 123 124
125 1 124 125
126 1 125 126
127 1 126 127
128 1 127 128
129 1 128 129
130 1 129 130
131 1 130 178
132 1 131 132
133 1 132 133
134 1 133 134
135 1 134 135
136 1 135 136
137 1 136 137
138 1 137 138
139 1 138 139
140 1 139 140
141 1 140 141
142 1 141 142
143 1 142 143
144 1 143 144
145 1 144 145
146 1 145 146
147 1 146 147
148 1 147 148
149 1 148 149
150 1 149 150
151 1 150 151
152 1 151 152
153 1 152 153
154 1 153 154
155 1 154 155
156 1 155 156
157 1 156 157
158 1 157 158
159 1 158 159
160 1 159 160
161 1 160 161
162 1 161 162
163 1 162 163
164 1 163 164
165 1 164 165
166 1 165 166
167 1 166 167
168 1 167 168
169 1 168 169
170 1 169 170
171 1 170 171
172 1 171 172
173 1 172 173
174 1 173 174
175 1 174 175
176 1 175 176
177 1 176 177
178 1 177 184
179 1 178 179
180 1 179 180
181 1 180 181
182 1 181 182
183 1 183 184

 Angles

1 1 1 2 3
2 1 2 3 4
3 1 3 4 5
4 1 4 5 6
5 1 5 6 7
6 1 6 7 8
7 1 7 8 9
8 1 8 9 10
9 1 9 10 11
10 1 10 11 12
11 1 11 12 13
12 1 12 13 14
13 1 13 14 15
14 1 14 15 16
15 1 15 16 17
16 1 16 17 18
17 1 17 18 19
18 1 18 19 20
19 1 19 20 21
20 1 20 21 22
21 1 21 22 23
22 1 22 23 24
23 1 23 24 25
24 1 24 25 26
25 1 25 26 27
26 1 26 27 28
27 1 27 28 29
28 1 28 29 30
29 1 29 30 31
30 1 30 31 32
31 1 31 32 33
32 1 32 33 183
33 1 37 34 39
34 1 39 35 41
35 1 41 36 43
36 1 34 37 131
37 1 43 38 47
38 1 34 39 35
39 1 47 40 49
40 1 35 41 36
41 1 49 42 53
42 1 36 43 38
43 1 45 44 51
44 1 44 45 100
45 1 53 46 55
46 1 38 47 40
47 1 55 48 59
48 1 40 49 42
49 1 51 50 58
50 1 44 51 50
51 1 59 52 61
52 1 42 53 46
53 1 61 54 64
54 1 46 55 48
55 1 58 56 63
56 1 64 57 65
57 1 50 58 56
58 1 48 59 52
59 1 65 60 66
60 1 52 61 54
61 1 63 62 66
62 1 56 63 62
63 1 54 64 57
64 1 57 65 60
65 1 60 66 62
66 1 70 67 72
67 1 72 68 74
68 1 74 69 76
69 1 67 70 101
70 1 76 71 80
71 1 67 72 68
72 1 80 73 82
73 1 68 74 69
74 1 82 75 86
75 1 69 76 71
76 1 78 77 84
77 1 77 78 102
78 1 86 79 88
79 1 71 80 73
80 1 88 81 92
81 1 73 82 75
82 1 84 83 91
83 1 77 84 83
84 1 92 85 94
85 1 75 86 79
86 1 94 87 97
87 1 79 88 81
88 1 91 89 96
89 1 97 90 98
90 1 83 91 89
91 1 81 92 85
92 1 98 93 99
93 1 85 94 87
94 1 96 95 99
95 1 89 96 95
96 1 87 97 90
97 1 90 98 93
98 1 93 99 95
99 1 45 100 101
100 1 70 101 100
101 1 78 102 103
102 1 102 103 104
103 1 103 104 105
104 1 104 105 106
105 1 105 106 107
106 1 106 107 108
107 1 107 108 109
108 1 108 109 110
109 1 109 110 111
110 1 110 111 112
111 1 111 112 113
112 1 112 113 114
113 1 113 114 115
114 1 114 115 116
115 1 115 116 117
116 1 116 117 118
117 1 117 118 119
118 1 118 119 120
119 1 119 120 121
120 1 120 121 122
121 1 121 122 123
122 1 122 123 124
123 1 123 124 125
124 1 124 125 126
125 1 125 126 127
126 1 126 127 128
127 1 127 128 129
128 1 128 129 130
129 1 129 130 178
130 1 37 131 132
131 1 131 132 133
132 1 132 133 134
133 1 133 134 135
134 1 134 135 136
135 1 135 136 137
136 1 136 137 138
137 1 137 138 139
138 1 138 139 140
139 1 139 140 141
140 1 140 141 142
141 1 141 142 143
142 1 142 143 144
143 1 143 144 145
144 1 144 145 146
145 1 145 146 147
146 1 146 147 148
147 1 147 148 149
148 1 148 149 150
149 1 149 150 151
150 1 150 151 152
151 1 151 152 153
152 1 152 153 154
153 1 153 154 155
154 1 154 155 156
155 1 155 156 157
156 1 156 157 158
157 1 157 158 159
158 1 158 159 160
159 1 159 160 161
160 1 160 161 162
161 1 161 162 163
162 1 162 163 164
163 1 163 164 165
164 1 164 165 166
165 1 165 166 167
166 1 166 167 168
167 1 167 168 169
168 1 168 169 170
169 1 169 170 171
170 1 170 171 172
171 1 171 172 173
172 1 172 173 174
173 1 173 174 175
174 1 174 175 176
175 1 175 176 177
176 1 176 177 184
177 1 130 178 179
178 1 178 179 180
179 1 179 180 181
180 1 180 181 182
181 1 33 183 184
182 1 177 184 183

