# Model for PE

      1024     atoms
      1023     bonds
      1022     angles
      1021     dihedrals

         1     atom types
         1     bond types
         1     angle types
         1     dihedral types

    500.0000  1500.2985 xlo xhi
    500.0000  1500.2985 ylo yhi
    500.0000 1500.2985 zlo zhi

Masses

         1          14.02

Atoms

1 1 1 0 1068.49 989.286 1027.85 
2 1 1 0 1068.35 989.851 1028.63 
3 1 1 0 1068.5 989.062 1028.06 
4 1 1 0 1068.83 989.346 1027.18 
5 1 1 0 1069.2 990.038 1027.91 
6 1 1 0 1070.21 989.884 1027.78 
7 1 1 0 1069.27 990.272 1027.95 
8 1 1 0 1070.18 989.89 1027.86 
9 1 1 0 1069.94 989.662 1028.86 
10 1 1 0 1069.58 990.629 1029.14 
11 1 1 0 1069.52 989.87 1029.73 
12 1 1 0 1070.01 989.579 1028.85 
13 1 1 0 1069.59 989.067 1028.14 
14 1 1 0 1069.86 988.968 1027.2 
15 1 1 0 1069.52 988.948 1028.04 
16 1 1 0 1069.95 988.935 1027.17 
17 1 1 0 1069.78 988.919 1026.2 
18 1 1 0 1070.62 989.088 1025.61 
19 1 1 0 1069.78 988.92 1026.12 
20 1 1 0 1070.58 989.183 1025.57 
21 1 1 0 1070.15 990.051 1025.76 
22 1 1 0 1069.56 989.554 1025.18 
23 1 1 0 1070.14 990.088 1025.79 
24 1 1 0 1069.62 989.399 1025.08 
25 1 1 0 1070.41 989.251 1024.56 
26 1 1 0 1070 988.369 1024.89 
27 1 1 0 1070.36 989.319 1024.53 
28 1 1 0 1070.02 988.488 1024.83 
29 1 1 0 1069.53 987.684 1024.77 
30 1 1 0 1069.7 986.985 1024.09 
31 1 1 0 1069.68 986.315 1024.89 
32 1 1 0 1070.27 985.537 1024.62 
33 1 1 0 1071.19 985.83 1024.33 
34 1 1 0 1071.08 986.748 1023.91 
35 1 1 0 1071.96 986.253 1023.75 
36 1 1 0 1071.12 986.79 1023.75 
37 1 1 0 1072.01 986.311 1023.48 
38 1 1 0 1072.99 986.545 1023.29 
39 1 1 0 1073.91 986.228 1023.03 
40 1 1 0 1072.98 986.521 1023.32 
41 1 1 0 1073.87 986.242 1023.14 
42 1 1 0 1074.35 987.099 1022.99 
43 1 1 0 1074.48 988.053 1023.3 
44 1 1 0 1075.01 987.733 1022.49 
45 1 1 0 1074.33 987.28 1023 
46 1 1 0 1074.55 988.144 1023.46 
47 1 1 0 1075.04 988.946 1023.29 
48 1 1 0 1074.02 989.034 1023.23 
49 1 1 0 1075.02 988.916 1023.28 
50 1 1 0 1073.94 989.096 1023.2 
51 1 1 0 1074.04 989.206 1022.23 
52 1 1 0 1074.44 989.923 1022.7 
53 1 1 0 1073.41 990.037 1023.13 
54 1 1 0 1073.86 990.641 1023.84 
55 1 1 0 1073.46 989.997 1023.08 
56 1 1 0 1073.68 990.464 1023.93 
57 1 1 0 1074.04 990.965 1023.26 
58 1 1 0 1074.94 991.324 1023.39 
59 1 1 0 1074.13 991.081 1022.86 
60 1 1 0 1073.73 991.675 1023.51 
61 1 1 0 1073.21 991.584 1024.38 
62 1 1 0 1073.7 991.816 1025.26 
63 1 1 0 1073.26 991.564 1024.39 
64 1 1 0 1073.63 991.951 1025.26 
65 1 1 0 1072.94 992.016 1025.92 
66 1 1 0 1073.85 992.296 1026.23 
67 1 1 0 1072.95 992.045 1025.89 
68 1 1 0 1073.83 992.353 1026.29 
69 1 1 0 1073.24 992.437 1027.13 
70 1 1 0 1073.68 993.307 1027.06 
71 1 1 0 1073.16 992.503 1027.18 
72 1 1 0 1073.75 993.297 1027.11 
73 1 1 0 1074.26 993.69 1027.78 
74 1 1 0 1075.01 993.1 1027.98 
75 1 1 0 1074.86 992.075 1027.92 
76 1 1 0 1075.29 991.37 1027.47 
77 1 1 0 1074.87 992.187 1027.95 
78 1 1 0 1075.27 991.383 1027.44 
79 1 1 0 1075.32 991.045 1028.39 
80 1 1 0 1076.12 991.279 1028.89 
81 1 1 0 1075.2 991.118 1028.44 
82 1 1 0 1076.03 991.298 1028.99 
83 1 1 0 1075.87 991.34 1029.93 
84 1 1 0 1075.19 991.542 1029.39 
85 1 1 0 1075.89 991.345 1030.13 
86 1 1 0 1075.14 991.562 1029.5 
87 1 1 0 1075.08 992.241 1030.28 
88 1 1 0 1074.31 991.764 1029.85 
89 1 1 0 1074.48 992.231 1030.79 
90 1 1 0 1074.2 992.163 1029.88 
91 1 1 0 1073.37 992.23 1029.22 
92 1 1 0 1072.57 992.802 1029.46 
93 1 1 0 1073.37 992.22 1029.24 
94 1 1 0 1072.88 993.024 1029.15 
95 1 1 0 1072.36 993.789 1028.83 
96 1 1 0 1071.93 993.19 1028.17 
97 1 1 0 1072.05 992.799 1027.33 
98 1 1 0 1071.9 993.148 1028.28 
99 1 1 0 1072.12 992.691 1027.4 
100 1 1 0 1072.42 991.799 1027.02 
101 1 1 0 1073.14 991.526 1027.65 
102 1 1 0 1072.42 991.714 1026.96 
103 1 1 0 1073.22 991.175 1026.55 
104 1 1 0 1073.27 991.466 1027.58 
105 1 1 0 1073.26 991.23 1026.6 
106 1 1 0 1073.17 990.929 1025.67 
107 1 1 0 1072.94 990.656 1024.73 
108 1 1 0 1073.92 990.918 1024.98 
109 1 1 0 1073.15 990.893 1025.51 
110 1 1 0 1073.02 990.586 1024.62 
111 1 1 0 1073.91 990.786 1024.97 
112 1 1 0 1074.2 989.942 1024.63 
113 1 1 0 1073.55 989.407 1024.16 
114 1 1 0 1074.23 989.967 1024.74 
115 1 1 0 1073.58 989.477 1024.14 
116 1 1 0 1072.79 989.026 1023.76 
117 1 1 0 1072.44 989.442 1024.56 
118 1 1 0 1072.71 988.913 1023.8 
119 1 1 0 1072.54 989.376 1024.67 
120 1 1 0 1073.15 989.737 1025.34 
121 1 1 0 1072.37 989.238 1025.69 
122 1 1 0 1073.19 989.692 1025.41 
123 1 1 0 1072.3 989.265 1025.69 
124 1 1 0 1072.19 990.245 1025.35 
125 1 1 0 1071.9 990.286 1024.45 
126 1 1 0 1072.2 990.287 1025.31 
127 1 1 0 1071.89 990.277 1024.45 
128 1 1 0 1072.48 990.072 1023.71 
129 1 1 0 1071.77 990.668 1023.39 
130 1 1 0 1072.74 990.938 1023.57 
131 1 1 0 1072.58 989.963 1023.7 
132 1 1 0 1071.9 990.76 1023.39 
133 1 1 0 1072.88 991.099 1023.41 
134 1 1 0 1072.89 990.978 1022.43 
135 1 1 0 1073.06 990.025 1022.03 
136 1 1 0 1072.89 990.953 1022.45 
137 1 1 0 1072.31 990.054 1022.64 
138 1 1 0 1071.33 990.111 1022.67 
139 1 1 0 1070.75 990.143 1021.82 
140 1 1 0 1070.89 989.618 1022.68 
141 1 1 0 1070.79 990.633 1022.87 
142 1 1 0 1069.92 991.007 1023.13 
143 1 1 0 1070.88 991.369 1023.01 
144 1 1 0 1070.16 990.628 1022.99 
145 1 1 0 1070.1 989.613 1023.28 
146 1 1 0 1069.48 989.121 1023.89 
147 1 1 0 1069.72 990.03 1024.28 
148 1 1 0 1069.57 990.518 1025.1 
149 1 1 0 1069.72 991.159 1024.38 
150 1 1 0 1069.67 990.184 1024.36 
151 1 1 0 1069.39 991.066 1024.67 
152 1 1 0 1070.35 991.258 1025.08 
153 1 1 0 1069.98 992.153 1024.98 
154 1 1 0 1070.39 991.264 1025.19 
155 1 1 0 1069.75 991.927 1025.59 
156 1 1 0 1070.38 992.383 1024.98 
157 1 1 0 1071.07 992.985 1025.52 
158 1 1 0 1071.05 991.996 1025.78 
159 1 1 0 1071.19 991.996 1024.67 
160 1 1 0 1071.1 992.048 1025.75 
161 1 1 0 1071.32 991.923 1024.78 
162 1 1 0 1071.39 991.073 1025.22 
163 1 1 0 1070.81 990.346 1024.86 
164 1 1 0 1071.39 991.064 1025.14 
165 1 1 0 1070.76 990.372 1024.83 
166 1 1 0 1070.88 991.016 1024.08 
167 1 1 0 1070.46 991.832 1023.91 
168 1 1 0 1070.97 991.01 1024.06 
169 1 1 0 1070.49 991.909 1024.01 
170 1 1 0 1070.64 992.927 1023.86 
171 1 1 0 1071.34 992.98 1024.43 
172 1 1 0 1071.99 993.616 1024.93 
173 1 1 0 1071.94 993.393 1026.01 
174 1 1 0 1072.86 992.891 1026.27 
175 1 1 0 1072.08 993.355 1026.07 
176 1 1 0 1072.98 992.996 1026.3 
177 1 1 0 1073.51 992.934 1025.44 
178 1 1 0 1074.06 993.474 1026.11 
179 1 1 0 1073.44 992.964 1025.52 
180 1 1 0 1073.59 993.749 1026.1 
181 1 1 0 1073.24 994.67 1025.95 
182 1 1 0 1072.58 994.305 1026.59 
183 1 1 0 1072.63 993.584 1027.2 
184 1 1 0 1071.78 993.943 1027.43 
185 1 1 0 1072.63 993.701 1027.05 
186 1 1 0 1071.84 993.953 1027.44 
187 1 1 0 1070.95 993.588 1027.25 
188 1 1 0 1071.17 992.924 1026.63 
189 1 1 0 1071.3 991.954 1026.89 
190 1 1 0 1071.13 992.878 1026.54 
191 1 1 0 1071.99 992.337 1026.28 
192 1 1 0 1071.25 991.985 1026.87 
193 1 1 0 1072 992.344 1026.18 
194 1 1 0 1071.97 992.59 1025.18 
195 1 1 0 1072.87 992.47 1024.73 
196 1 1 0 1071.99 992.581 1025.29 
197 1 1 0 1072.45 992.372 1024.47 
198 1 1 0 1072.91 993.234 1024.65 
199 1 1 0 1073.52 992.63 1024.07 
200 1 1 0 1072.63 992.394 1023.57 
201 1 1 0 1073.57 992.592 1023.98 
202 1 1 0 1072.76 992.161 1023.51 
203 1 1 0 1072.24 991.858 1022.72 
204 1 1 0 1071.6 991.035 1022.29 
205 1 1 0 1071.99 991.754 1022.74 
206 1 1 0 1071.6 991.971 1023.61 
207 1 1 0 1072.07 991.275 1024.25 
208 1 1 0 1071.54 991.855 1023.66 
209 1 1 0 1072.04 991.388 1024.39 
210 1 1 0 1072.35 991.477 1025.2 
211 1 1 0 1072.03 991.348 1026.11 
212 1 1 0 1072.43 991.588 1025.15 
213 1 1 0 1072.11 991.157 1026.01 
214 1 1 0 1071.15 991.113 1026.36 
215 1 1 0 1070.64 990.501 1026.93 
216 1 1 0 1070.9 991.041 1026.1 
217 1 1 0 1070.69 990.483 1026.87 
218 1 1 0 1070.64 989.55 1026.6 
219 1 1 0 1071.58 989.234 1026.53 
220 1 1 0 1070.66 989.515 1026.72 
221 1 1 0 1071.56 989.165 1026.47 
222 1 1 0 1070.77 988.583 1026.57 
223 1 1 0 1070.03 987.931 1026.82 
224 1 1 0 1070.82 988.518 1026.52 
225 1 1 0 1070.05 987.999 1026.73 
226 1 1 0 1070.34 987.973 1025.75 
227 1 1 0 1069.92 987.151 1025.68 
228 1 1 0 1070.44 987.951 1025.74 
229 1 1 0 1069.89 987.156 1025.52 
230 1 1 0 1069.34 987.991 1025.75 
231 1 1 0 1068.87 988.542 1025.05 
232 1 1 0 1069.19 987.901 1025.77 
233 1 1 0 1069.28 987.259 1026.53 
234 1 1 0 1069.09 986.47 1026 
235 1 1 0 1069.53 987.034 1026.68 
236 1 1 0 1070.21 987.016 1027.36 
237 1 1 0 1070.38 986.112 1027.66 
238 1 1 0 1069.68 986.529 1027.01 
239 1 1 0 1070.48 987.006 1027.43 
240 1 1 0 1070.95 987.881 1027.31 
241 1 1 0 1070.26 988.133 1027.9 
242 1 1 0 1071.07 987.919 1027.39 
243 1 1 0 1070.22 988.006 1027.89 
244 1 1 0 1069.22 988.077 1027.75 
245 1 1 0 1068.98 988.369 1026.82 
246 1 1 0 1069.19 987.883 1027.65 
247 1 1 0 1069.05 988.406 1026.81 
248 1 1 0 1068.67 988.984 1026.13 
249 1 1 0 1069.03 989.9 1026.1 
250 1 1 0 1069.74 989.95 1026.79 
251 1 1 0 1068.88 990.041 1026.32 
252 1 1 0 1069.72 989.981 1026.87 
253 1 1 0 1068.81 990.448 1026.85 
254 1 1 0 1068.96 991.448 1026.92 
255 1 1 0 1069.02 992.08 1027.71 
256 1 1 0 1069.73 991.598 1028.2 
257 1 1 0 1070.24 990.76 1028.41 
258 1 1 0 1070.65 991.513 1027.73 
259 1 1 0 1070.05 990.844 1028.26 
260 1 1 0 1069.79 991.005 1027.3 
261 1 1 0 1070.62 991.548 1027.62 
262 1 1 0 1069.8 991.009 1027.28 
263 1 1 0 1069.65 990.862 1026.3 
264 1 1 0 1068.83 990.9 1025.7 
265 1 1 0 1069.69 991.014 1026.17 
266 1 1 0 1070.1 991.789 1026.66 
267 1 1 0 1069.35 992.345 1026.52 
268 1 1 0 1070.2 992.796 1026.17 
269 1 1 0 1070.26 991.971 1026.65 
270 1 1 0 1070.18 992.787 1026 
271 1 1 0 1070.18 992.739 1027.08 
272 1 1 0 1070.89 992.745 1027.84 
273 1 1 0 1071.58 992.066 1028.07 
274 1 1 0 1070.85 992.657 1027.73 
275 1 1 0 1071.57 992.05 1028.09 
276 1 1 0 1072.26 991.283 1028.16 
277 1 1 0 1071.59 991.158 1027.38 
278 1 1 0 1071.27 991.019 1028.35 
279 1 1 0 1072.29 991.293 1028.12 
280 1 1 0 1071.49 991.07 1027.43 
281 1 1 0 1071.3 991.001 1028.38 
282 1 1 0 1070.83 991.95 1028.79 
283 1 1 0 1071.41 992.632 1029.15 
284 1 1 0 1070.85 991.856 1028.83 
285 1 1 0 1071.42 992.507 1029.04 
286 1 1 0 1071.78 992.149 1029.88 
287 1 1 0 1072.49 991.538 1030.09 
288 1 1 0 1072.54 991.267 1031.08 
289 1 1 0 1072.44 991.508 1030.18 
290 1 1 0 1072.29 991.097 1031.04 
291 1 1 0 1071.63 990.788 1030.39 
292 1 1 0 1071.85 990.242 1031.21 
293 1 1 0 1071.73 990.77 1030.36 
294 1 1 0 1070.92 990.197 1030.36 
295 1 1 0 1070.6 989.372 1029.82 
296 1 1 0 1069.78 988.805 1029.69 
297 1 1 0 1070.6 989.497 1029.68 
298 1 1 0 1070.75 988.415 1029.68 
299 1 1 0 1070.04 988.055 1030.27 
300 1 1 0 1070.88 988.303 1029.7 
301 1 1 0 1071.78 987.996 1029.36 
302 1 1 0 1071.49 987.043 1029.64 
303 1 1 0 1071.68 987.957 1029.34 
304 1 1 0 1071.65 987.013 1029.36 
305 1 1 0 1071.42 987.542 1030.19 
306 1 1 0 1072.33 987.553 1030.11 
307 1 1 0 1072.57 986.951 1029.35 
308 1 1 0 1072.42 987.511 1030.13 
309 1 1 0 1072.69 986.937 1029.41 
310 1 1 0 1072.9 986.076 1029.87 
311 1 1 0 1072.28 985.512 1030.41 
312 1 1 0 1072.88 986.121 1029.93 
313 1 1 0 1072.08 986.497 1030.34 
314 1 1 0 1072.2 985.489 1030.44 
315 1 1 0 1072.24 986.542 1030.47 
316 1 1 0 1071.54 986.176 1030.13 
317 1 1 0 1070.95 985.507 1029.67 
318 1 1 0 1071.14 986.108 1028.85 
319 1 1 0 1072.01 985.93 1029.2 
320 1 1 0 1071.06 986.215 1029.06 
321 1 1 0 1072 985.969 1029.14 
322 1 1 0 1071.76 985.258 1028.42 
323 1 1 0 1071.82 984.363 1028.13 
324 1 1 0 1071.16 985.147 1028.35 
325 1 1 0 1072.05 984.643 1028.32 
326 1 1 0 1073.02 984.468 1028.19 
327 1 1 0 1073.81 984.503 1028.68 
328 1 1 0 1072.97 984.448 1028.25 
329 1 1 0 1073.79 984.619 1028.73 
330 1 1 0 1073.71 985.474 1028.18 
331 1 1 0 1073.86 984.768 1027.53 
332 1 1 0 1073.78 985.445 1028.22 
333 1 1 0 1073.71 984.922 1027.37 
334 1 1 0 1073.26 985.801 1027.14 
335 1 1 0 1073.76 986.62 1026.89 
336 1 1 0 1073.25 985.777 1027.1 
337 1 1 0 1073.32 986.471 1027.8 
338 1 1 0 1073.63 986.71 1026.89 
339 1 1 0 1072.8 986.807 1027.14 
340 1 1 0 1073.32 986.604 1027.91 
341 1 1 0 1072.55 986.603 1027.23 
342 1 1 0 1072.11 985.839 1027.05 
343 1 1 0 1071.45 986.182 1027.77 
344 1 1 0 1072.09 985.861 1027.05 
345 1 1 0 1071.49 986.142 1027.74 
346 1 1 0 1071.18 987.15 1028.11 
347 1 1 0 1070.67 987.684 1028.81 
348 1 1 0 1071.27 987.158 1028.21 
349 1 1 0 1070.74 987.595 1028.77 
350 1 1 0 1070.4 987.137 1029.52 
351 1 1 0 1070.25 986.788 1028.48 
352 1 1 0 1070.33 986.998 1029.39 
353 1 1 0 1070.01 986.818 1028.5 
354 1 1 0 1069.4 987.438 1029.11 
355 1 1 0 1069.82 988.263 1028.8 
356 1 1 0 1070.66 988.802 1028.77 
357 1 1 0 1071.52 988.935 1029.24 
358 1 1 0 1070.67 988.865 1028.78 
359 1 1 0 1071.53 989.03 1029.22 
360 1 1 0 1072.46 988.648 1028.9 
361 1 1 0 1072.55 987.738 1028.64 
362 1 1 0 1072.59 988.672 1028.9 
363 1 1 0 1072.5 987.741 1028.55 
364 1 1 0 1072.11 987.629 1027.63 
365 1 1 0 1071.66 988.297 1028.22 
366 1 1 0 1072.13 987.62 1027.65 
367 1 1 0 1071.55 988.219 1028.19 
368 1 1 0 1071.76 989.203 1028.22 
369 1 1 0 1071.07 989.862 1028.65 
370 1 1 0 1071.76 989.284 1028.21 
371 1 1 0 1071.09 989.866 1028.58 
372 1 1 0 1071.46 990.189 1029.43 
373 1 1 0 1070.62 990.625 1029.33 
374 1 1 0 1071.52 990.187 1029.38 
375 1 1 0 1070.65 990.753 1029.46 
376 1 1 0 1071.58 991.257 1029.34 
377 1 1 0 1072.23 991.922 1029.01 
378 1 1 0 1072.67 992.24 1028.21 
379 1 1 0 1072.3 991.733 1029.02 
380 1 1 0 1072.76 992.284 1028.35 
381 1 1 0 1073.08 993.137 1028.06 
382 1 1 0 1073.9 993.096 1028.62 
383 1 1 0 1073.82 992.294 1028.06 
384 1 1 0 1073.38 993.167 1028.11 
385 1 1 0 1073.82 992.336 1027.94 
386 1 1 0 1074.47 992.633 1027.13 
387 1 1 0 1074.98 992.861 1026.31 
388 1 1 0 1075.41 992.442 1027.09 
389 1 1 0 1074.47 992.641 1027.08 
390 1 1 0 1075.25 992.864 1026.47 
391 1 1 0 1075.6 992.458 1027.31 
392 1 1 0 1076.56 992.447 1027.08 
393 1 1 0 1076.17 991.942 1027.84 
394 1 1 0 1075.75 992.321 1028.63 
395 1 1 0 1076.36 991.82 1028.07 
396 1 1 0 1075.73 992.237 1028.65 
397 1 1 0 1074.77 992.558 1028.94 
398 1 1 0 1074.32 991.74 1028.71 
399 1 1 0 1074.8 992.575 1028.98 
400 1 1 0 1074.25 991.713 1028.81 
401 1 1 0 1074.25 991.024 1028.05 
402 1 1 0 1074.21 991.518 1027.17 
403 1 1 0 1073.78 990.574 1027.29 
404 1 1 0 1074.24 991.017 1028.02 
405 1 1 0 1074.15 991.418 1027.11 
406 1 1 0 1073.78 990.565 1027.27 
407 1 1 0 1073.17 989.797 1027.16 
408 1 1 0 1072.26 989.528 1027.34 
409 1 1 0 1073.23 989.74 1027.2 
410 1 1 0 1072.3 989.599 1027.3 
411 1 1 0 1072.57 988.881 1026.62 
412 1 1 0 1072.81 987.898 1026.76 
413 1 1 0 1072.63 988.817 1026.69 
414 1 1 0 1072.93 987.897 1026.7 
415 1 1 0 1072.65 988.212 1025.82 
416 1 1 0 1072.45 987.584 1025.1 
417 1 1 0 1072.65 988.212 1025.83 
418 1 1 0 1072.51 987.667 1025.11 
419 1 1 0 1072.48 987.946 1024.14 
420 1 1 0 1072.16 987.318 1023.44 
421 1 1 0 1072.59 988.089 1023.08 
422 1 1 0 1072.52 987.916 1024.16 
423 1 1 0 1072.22 987.428 1023.32 
424 1 1 0 1072.46 988.242 1022.73 
425 1 1 0 1072.97 989.124 1022.65 
426 1 1 0 1072.85 988.946 1021.7 
427 1 1 0 1072.66 989.087 1022.65 
428 1 1 0 1071.8 989.059 1023.19 
429 1 1 0 1071.25 988.561 1022.71 
430 1 1 0 1071.87 989.182 1023.05 
431 1 1 0 1071.56 989.195 1024.08 
432 1 1 0 1070.88 989.988 1023.81 
433 1 1 0 1071.36 989.251 1024.13 
434 1 1 0 1071.54 989.472 1025.03 
435 1 1 0 1071.25 990.13 1025.79 
436 1 1 0 1071.53 989.532 1025.12 
437 1 1 0 1071.23 990.074 1025.88 
438 1 1 0 1071.71 990.274 1026.68 
439 1 1 0 1072.43 990.692 1027.18 
440 1 1 0 1071.77 990.32 1026.63 
441 1 1 0 1072.69 990.163 1026.27 
442 1 1 0 1072.57 990.678 1027.14 
443 1 1 0 1072.83 990.137 1026.27 
444 1 1 0 1073.76 990.343 1026.17 
445 1 1 0 1074.6 990.462 1025.69 
446 1 1 0 1074.2 991.247 1025.98 
447 1 1 0 1073.84 990.349 1026.2 
448 1 1 0 1074.63 990.472 1025.63 
449 1 1 0 1074.13 991.309 1025.95 
450 1 1 0 1074.91 991.726 1026.44 
451 1 1 0 1075.33 991.165 1025.78 
452 1 1 0 1075.02 991.802 1026.48 
453 1 1 0 1075.41 991.117 1025.97 
454 1 1 0 1075.24 991.242 1025.08 
455 1 1 0 1074.76 990.969 1024.32 
456 1 1 0 1075.5 991.58 1024.42 
457 1 1 0 1074.73 990.999 1024.4 
458 1 1 0 1074.43 991.978 1024.31 
459 1 1 0 1075.22 992.323 1023.95 
460 1 1 0 1074.43 991.936 1024.51 
461 1 1 0 1074.76 992.099 1025.41 
462 1 1 0 1074.84 993.137 1025.17 
463 1 1 0 1074.7 992.158 1025.53 
464 1 1 0 1075.65 992.193 1025.51 
465 1 1 0 1076.68 992.459 1025.6 
466 1 1 0 1075.73 992.208 1025.53 
467 1 1 0 1076.38 991.463 1025.57 
468 1 1 0 1076.28 990.592 1025.31 
469 1 1 0 1075.59 990.095 1025.89 
470 1 1 0 1076.34 990.657 1025.42 
471 1 1 0 1075.68 990.066 1025.97 
472 1 1 0 1075.63 990.619 1026.82 
473 1 1 0 1074.65 990.676 1026.68 
474 1 1 0 1075.62 990.537 1026.87 
475 1 1 0 1074.77 990.613 1026.82 
476 1 1 0 1074.97 990.335 1027.68 
477 1 1 0 1075.18 989.904 1028.54 
478 1 1 0 1074.94 990.324 1027.63 
479 1 1 0 1075.08 989.78 1028.57 
480 1 1 0 1074.72 988.935 1028.82 
481 1 1 0 1074.5 989.772 1029.37 
482 1 1 0 1074.71 988.964 1028.72 
483 1 1 0 1074.46 989.736 1029.43 
484 1 1 0 1074.31 990.654 1029.04 
485 1 1 0 1073.42 990.138 1029.07 
486 1 1 0 1074.29 990.647 1029.05 
487 1 1 0 1073.47 990.149 1029.14 
488 1 1 0 1074.03 989.855 1028.36 
489 1 1 0 1073.88 989.003 1027.95 
490 1 1 0 1074.01 989.961 1028.15 
491 1 1 0 1073.85 989.094 1027.86 
492 1 1 0 1073.56 988.679 1027.04 
493 1 1 0 1073.51 989.268 1026.28 
494 1 1 0 1073.59 988.64 1027.08 
495 1 1 0 1073.47 989.207 1026.2 
496 1 1 0 1073.97 989.01 1025.35 
497 1 1 0 1073.15 988.491 1024.9 
498 1 1 0 1073.98 988.999 1025 
499 1 1 0 1073.11 988.56 1024.74 
500 1 1 0 1073.67 988.316 1023.96 
501 1 1 0 1073.4 987.476 1023.45 
502 1 1 0 1073.67 988.325 1023.97 
503 1 1 0 1073.32 987.518 1023.52 
504 1 1 0 1073.56 987.9 1022.64 
505 1 1 0 1072.86 987.249 1022.57 
506 1 1 0 1073.52 988.013 1022.49 
507 1 1 0 1072.85 987.239 1022.4 
508 1 1 0 1071.96 986.743 1022.27 
509 1 1 0 1071.23 986.148 1022.7 
510 1 1 0 1071.11 987.115 1022.5 
511 1 1 0 1070.81 987.598 1023.21 
512 1 1 0 1070.12 988.158 1023.71 
513 1 1 0 1071.17 988.195 1023.77 
514 1 1 0 1070.53 987.602 1023.38 
515 1 1 0 1070.6 988.5 1023.7 
516 1 1 0 1071.51 988.193 1023.83 
517 1 1 0 1071.66 987.519 1024.55 
518 1 1 0 1071.43 987.443 1025.52 
519 1 1 0 1071.63 987.468 1024.53 
520 1 1 0 1071.36 987.503 1025.47 
521 1 1 0 1070.91 987.233 1026.35 
522 1 1 0 1071.63 986.964 1026.98 
523 1 1 0 1070.82 987.251 1026.48 
524 1 1 0 1071.59 986.899 1026.91 
525 1 1 0 1070.97 986.154 1026.83 
526 1 1 0 1070.22 986.11 1026.21 
527 1 1 0 1071 986.199 1026.76 
528 1 1 0 1070.33 986.258 1026.01 
529 1 1 0 1070.95 986.517 1025.34 
530 1 1 0 1070.52 987.336 1024.8 
531 1 1 0 1070.82 986.632 1025.25 
532 1 1 0 1070.67 987.377 1024.62 
533 1 1 0 1071.01 988.264 1024.84 
534 1 1 0 1072 988.512 1024.85 
535 1 1 0 1071.02 988.404 1024.72 
536 1 1 0 1071.97 988.524 1024.76 
537 1 1 0 1071.59 988.494 1025.69 
538 1 1 0 1071.71 987.96 1026.46 
539 1 1 0 1071.46 988.581 1025.71 
540 1 1 0 1071.77 988.097 1026.51 
541 1 1 0 1071.82 988.679 1027.32 
542 1 1 0 1070.96 988.974 1027.58 
543 1 1 0 1071.8 988.555 1027.28 
544 1 1 0 1070.95 988.922 1027.57 
545 1 1 0 1071.27 989.963 1027.55 
546 1 1 0 1072.07 990.202 1028.11 
547 1 1 0 1071.27 989.988 1027.54 
548 1 1 0 1072.01 990.32 1028.11 
549 1 1 0 1072.45 990.699 1029.06 
550 1 1 0 1072.38 989.645 1029.08 
551 1 1 0 1072.48 990.606 1029.2 
552 1 1 0 1072.72 990.306 1030.16 
553 1 1 0 1072.46 989.742 1029.34 
554 1 1 0 1072.74 990.279 1030.03 
555 1 1 0 1073.73 990.101 1030.06 
556 1 1 0 1073.39 990.901 1030.61 
557 1 1 0 1073.85 990.173 1030.16 
558 1 1 0 1073.44 991.019 1030.57 
559 1 1 0 1073.54 991.048 1029.63 
560 1 1 0 1073.26 991.31 1028.7 
561 1 1 0 1073.43 991.183 1029.66 
562 1 1 0 1073.27 991.302 1028.69 
563 1 1 0 1073.09 990.512 1028.16 
564 1 1 0 1072.89 989.42 1028.21 
565 1 1 0 1073.04 990.436 1028.13 
566 1 1 0 1072.95 989.474 1028.29 
567 1 1 0 1072.74 988.614 1027.88 
568 1 1 0 1073.25 987.706 1027.74 
569 1 1 0 1072.67 988.535 1027.92 
570 1 1 0 1073.32 987.721 1027.68 
571 1 1 0 1073.51 987.26 1028.6 
572 1 1 0 1073.74 986.955 1029.51 
573 1 1 0 1074.08 986.544 1028.66 
574 1 1 0 1073.45 987.221 1028.68 
575 1 1 0 1073.76 986.86 1029.53 
576 1 1 0 1074.12 986.431 1028.68 
577 1 1 0 1074.73 986.548 1029.52 
578 1 1 0 1074.9 987.46 1029.86 
579 1 1 0 1074.73 986.511 1029.57 
580 1 1 0 1075 987.389 1029.75 
581 1 1 0 1075.61 986.905 1030.3 
582 1 1 0 1076.15 987.205 1031.13 
583 1 1 0 1075.56 986.569 1031.41 
584 1 1 0 1075.71 987.051 1030.55 
585 1 1 0 1074.97 987.675 1030.91 
586 1 1 0 1074.4 988.42 1031.07 
587 1 1 0 1075.27 988.819 1031.3 
588 1 1 0 1075.02 987.788 1031.08 
589 1 1 0 1074.31 988.509 1031.02 
590 1 1 0 1074.66 989.335 1031.51 
591 1 1 0 1074.64 990.276 1031.28 
592 1 1 0 1075.3 991.045 1031.16 
593 1 1 0 1074.33 991.281 1031.29 
594 1 1 0 1074.38 990.281 1031.07 
595 1 1 0 1073.8 989.44 1030.98 
596 1 1 0 1073.06 990.177 1031.14 
597 1 1 0 1073.66 989.373 1031.1 
598 1 1 0 1073.14 990.131 1031.28 
599 1 1 0 1072.62 989.293 1030.92 
600 1 1 0 1071.94 989.602 1030.25 
601 1 1 0 1072.1 988.636 1030.12 
602 1 1 0 1071.91 989.546 1030.3 
603 1 1 0 1071.24 988.891 1030.62 
604 1 1 0 1072.15 988.644 1030.23 
605 1 1 0 1072.97 988.241 1030.69 
606 1 1 0 1073.53 987.787 1031.43 
607 1 1 0 1072.64 987.504 1031.1 
608 1 1 0 1073.15 988.348 1030.76 
609 1 1 0 1073.52 987.491 1031.21 
610 1 1 0 1073.35 986.909 1030.53 
611 1 1 0 1073.04 986.303 1031.21 
612 1 1 0 1073.37 986.885 1030.52 
613 1 1 0 1072.86 986.304 1031.19 
614 1 1 0 1073.86 986.159 1031.17 
615 1 1 0 1074.48 986.754 1030.59 
616 1 1 0 1074.05 986.294 1031.35 
617 1 1 0 1074.4 986.708 1030.61 
618 1 1 0 1073.92 985.99 1030.06 
619 1 1 0 1073.9 985.586 1029.2 
620 1 1 0 1074.04 986.007 1030.1 
621 1 1 0 1073.84 985.618 1029.26 
622 1 1 0 1074.69 985.514 1028.76 
623 1 1 0 1074.87 985.009 1029.55 
624 1 1 0 1074.69 985.504 1028.61 
625 1 1 0 1074.76 985.216 1029.68 
626 1 1 0 1075.03 985.822 1030.41 
627 1 1 0 1076.07 985.966 1030.57 
628 1 1 0 1075.12 985.82 1030.27 
629 1 1 0 1074.56 985.039 1030.65 
630 1 1 0 1073.65 984.992 1031.17 
631 1 1 0 1073.31 985.127 1030.27 
632 1 1 0 1074.24 985.058 1030.53 
633 1 1 0 1073.2 985.369 1030.57 
634 1 1 0 1073.3 984.583 1029.97 
635 1 1 0 1072.27 984.527 1029.73 
636 1 1 0 1073.12 983.896 1029.63 
637 1 1 0 1072.42 984.628 1029.7 
638 1 1 0 1072.78 985.219 1028.97 
639 1 1 0 1073.08 986.117 1028.83 
640 1 1 0 1072.93 985.151 1029.06 
641 1 1 0 1073 986.155 1028.75 
642 1 1 0 1072.25 986.621 1028.24 
643 1 1 0 1072.61 985.656 1028.06 
644 1 1 0 1072.31 986.599 1028.19 
645 1 1 0 1072.57 985.645 1028.05 
646 1 1 0 1072.61 984.853 1027.3 
647 1 1 0 1072.25 984.807 1026.36 
648 1 1 0 1072.59 984.893 1027.24 
649 1 1 0 1071.65 984.898 1026.79 
650 1 1 0 1072.29 985.191 1026.14 
651 1 1 0 1072.64 985.599 1025.28 
652 1 1 0 1073.05 986.563 1025.3 
653 1 1 0 1072.73 985.587 1025.29 
654 1 1 0 1072.97 986.578 1025.28 
655 1 1 0 1073.45 987.212 1025.78 
656 1 1 0 1073.73 988.139 1025.77 
657 1 1 0 1073.38 987.254 1026.01 
658 1 1 0 1073.69 988.124 1025.76 
659 1 1 0 1074.37 988.109 1025 
660 1 1 0 1074.79 988.326 1025.88 
661 1 1 0 1074.46 988.115 1024.92 
662 1 1 0 1074.76 988.283 1025.92 
663 1 1 0 1074.56 988.736 1026.79 
664 1 1 0 1074.54 989.418 1026.06 
665 1 1 0 1074.6 988.728 1026.8 
666 1 1 0 1074.29 989.615 1027.08 
667 1 1 0 1074.5 989.536 1026.09 
668 1 1 0 1075.23 989.568 1026.81 
669 1 1 0 1074.29 989.635 1027.19 
670 1 1 0 1075.04 989.216 1027.77 
671 1 1 0 1075.23 989.616 1026.89 
672 1 1 0 1075.01 989.15 1027.76 
673 1 1 0 1075.81 989.689 1027.71 
674 1 1 0 1076.64 989.717 1028.06 
675 1 1 0 1076.89 990.198 1027.2 
676 1 1 0 1076.17 989.818 1027.8 
677 1 1 0 1076.94 990.291 1027.27 
678 1 1 0 1076.41 989.598 1026.95 
679 1 1 0 1076.7 988.782 1026.46 
680 1 1 0 1076.23 989.591 1026.74 
681 1 1 0 1076.73 988.72 1026.52 
682 1 1 0 1076.68 988.606 1025.55 
683 1 1 0 1077.16 989.227 1024.91 
684 1 1 0 1076.68 988.591 1025.44 
685 1 1 0 1077.32 988.907 1024.81 
686 1 1 0 1077.57 987.965 1024.96 
687 1 1 0 1077.06 987.934 1024.14 
688 1 1 0 1077.95 987.98 1023.8 
689 1 1 0 1077.1 987.695 1024.3 
690 1 1 0 1076.98 988.341 1023.53 
691 1 1 0 1076.05 988.519 1023.25 
692 1 1 0 1075.67 988.856 1022.53 
693 1 1 0 1075.97 988.433 1023.42 
694 1 1 0 1076.38 988.554 1024.35 
695 1 1 0 1076.63 989.281 1023.8 
696 1 1 0 1076.36 988.556 1024.43 
697 1 1 0 1075.74 989.336 1024.15 
698 1 1 0 1076.66 989.438 1023.7 
699 1 1 0 1075.67 989.348 1024 
700 1 1 0 1075.62 989.923 1023.31 
701 1 1 0 1074.69 989.93 1023.73 
702 1 1 0 1075.34 990.346 1023.15 
703 1 1 0 1074.73 989.849 1023.69 
704 1 1 0 1074.57 988.998 1024.2 
705 1 1 0 1075.04 989.106 1025.1 
706 1 1 0 1074.61 988.911 1024.24 
707 1 1 0 1075.04 989.122 1025.09 
708 1 1 0 1075.23 990.045 1024.82 
709 1 1 0 1075.81 990.59 1024.18 
710 1 1 0 1075.27 990.059 1024.76 
711 1 1 0 1075.8 990.639 1024.39 
712 1 1 0 1076.56 991.341 1024.49 
713 1 1 0 1077.39 991.24 1024.97 
714 1 1 0 1076.57 991.592 1024.5 
715 1 1 0 1077.3 990.866 1024.7 
716 1 1 0 1076.91 990.693 1023.79 
717 1 1 0 1076.75 990.075 1024.58 
718 1 1 0 1077.1 990.419 1023.63 
719 1 1 0 1076.7 990.012 1024.5 
720 1 1 0 1076.11 989.377 1025.03 
721 1 1 0 1076.75 989.628 1025.77 
722 1 1 0 1076.02 989.44 1025.08 
723 1 1 0 1076.73 989.689 1025.81 
724 1 1 0 1077.51 989.736 1026.46 
725 1 1 0 1078.32 989.307 1026.86 
726 1 1 0 1077.69 989.799 1026.47 
727 1 1 0 1078.46 989.31 1026.82 
728 1 1 0 1078.52 990.284 1026.72 
729 1 1 0 1077.86 990.832 1027.28 
730 1 1 0 1077.5 990.865 1026.46 
731 1 1 0 1076.54 990.615 1026.42 
732 1 1 0 1076.12 991.498 1026.7 
733 1 1 0 1076.62 990.695 1026.42 
734 1 1 0 1076.21 991.592 1026.58 
735 1 1 0 1076.99 991.419 1027.09 
736 1 1 0 1077.48 992.051 1026.55 
737 1 1 0 1077.01 991.375 1027.23 
738 1 1 0 1076.16 990.924 1027.68 
739 1 1 0 1077.05 990.951 1028.11 
740 1 1 0 1076.17 990.948 1027.69 
741 1 1 0 1076.89 990.779 1028.26 
742 1 1 0 1077.12 991.414 1028.97 
743 1 1 0 1076.93 990.591 1029.41 
744 1 1 0 1076.07 990.339 1028.77 
745 1 1 0 1076.47 989.622 1029.26 
746 1 1 0 1076.76 990.616 1029.42 
747 1 1 0 1076.09 990.18 1028.81 
748 1 1 0 1076.69 989.562 1029.3 
749 1 1 0 1076.88 989.717 1030.26 
750 1 1 0 1075.94 989.254 1030.38 
751 1 1 0 1075.88 990.231 1030.28 
752 1 1 0 1075.9 989.19 1030.38 
753 1 1 0 1075.78 989.89 1031.17 
754 1 1 0 1075.69 990.372 1030.3 
755 1 1 0 1074.72 990.723 1030.11 
756 1 1 0 1075.37 990.51 1029.45 
757 1 1 0 1074.69 990.885 1030.13 
758 1 1 0 1075.25 990.438 1029.41 
759 1 1 0 1075.44 989.367 1029.44 
760 1 1 0 1075.9 989.026 1028.58 
761 1 1 0 1075.57 989.363 1029.43 
762 1 1 0 1075.89 988.974 1028.59 
763 1 1 0 1075.53 988.17 1028.02 
764 1 1 0 1074.64 988.107 1027.65 
765 1 1 0 1075.48 988.257 1028.13 
766 1 1 0 1074.63 988.062 1027.66 
767 1 1 0 1074.21 987.189 1027.76 
768 1 1 0 1074.64 987.645 1028.61 
769 1 1 0 1074.22 987.126 1027.84 
770 1 1 0 1074.63 987.43 1028.65 
771 1 1 0 1074.25 988.037 1029.32 
772 1 1 0 1074.1 987.68 1030.28 
773 1 1 0 1074.16 988.19 1029.38 
774 1 1 0 1073.29 988.146 1029.68 
775 1 1 0 1074.02 987.808 1030.21 
776 1 1 0 1073.22 988.009 1029.56 
777 1 1 0 1073.49 988.266 1028.61 
778 1 1 0 1073.65 989.159 1029.02 
779 1 1 0 1073.51 988.297 1028.63 
780 1 1 0 1073.59 989.118 1029.03 
781 1 1 0 1073.01 989.141 1029.84 
782 1 1 0 1073.93 988.82 1030.09 
783 1 1 0 1073.02 989.141 1029.93 
784 1 1 0 1074.02 989.016 1029.97 
785 1 1 0 1074.7 989.534 1030.47 
786 1 1 0 1074.96 988.618 1030.14 
787 1 1 0 1074.89 989.586 1030.42 
788 1 1 0 1074.99 988.609 1030.23 
789 1 1 0 1075.86 988.072 1030.42 
790 1 1 0 1076.16 987.531 1029.69 
791 1 1 0 1075.84 988.125 1030.42 
792 1 1 0 1076.3 987.489 1029.69 
793 1 1 0 1076.12 986.518 1029.39 
794 1 1 0 1075.64 985.82 1029.17 
795 1 1 0 1076.29 986.14 1028.5 
796 1 1 0 1076.03 986.424 1029.41 
797 1 1 0 1076.24 986.062 1028.48 
798 1 1 0 1076.26 986.983 1027.98 
799 1 1 0 1076.93 987.136 1028.67 
800 1 1 0 1076.29 987.036 1027.95 
801 1 1 0 1076.8 987.068 1028.74 
802 1 1 0 1077.8 987.234 1028.85 
803 1 1 0 1078.29 987.372 1027.98 
804 1 1 0 1078 987.266 1028.87 
805 1 1 0 1078.34 987.213 1027.95 
806 1 1 0 1077.44 986.856 1027.75 
807 1 1 0 1077.66 985.961 1027.27 
808 1 1 0 1078.31 986.358 1027.81 
809 1 1 0 1077.39 986.736 1027.72 
810 1 1 0 1077.81 985.888 1027.26 
811 1 1 0 1077.61 985.379 1026.43 
812 1 1 0 1077.37 986.329 1026.07 
813 1 1 0 1077.01 985.51 1026.45 
814 1 1 0 1077.37 986.378 1026.19 
815 1 1 0 1078.22 986.919 1025.88 
816 1 1 0 1078 987.329 1026.8 
817 1 1 0 1078.74 986.696 1026.91 
818 1 1 0 1077.99 987.381 1026.9 
819 1 1 0 1078.12 988.317 1027.13 
820 1 1 0 1078.06 988.629 1028.03 
821 1 1 0 1078.23 988.274 1027.09 
822 1 1 0 1078.12 988.74 1028.01 
823 1 1 0 1078.23 989.43 1028.65 
824 1 1 0 1077.47 990.015 1028.68 
825 1 1 0 1078.08 990.75 1028.38 
826 1 1 0 1077.58 989.953 1028.62 
827 1 1 0 1077.82 989.881 1027.7 
828 1 1 0 1077.41 989.041 1027.31 
829 1 1 0 1077.8 989.834 1027.68 
830 1 1 0 1077.19 989.091 1027.42 
831 1 1 0 1076.52 988.678 1027.81 
832 1 1 0 1077.13 988.923 1028.59 
833 1 1 0 1076.63 988.628 1027.76 