# Model for PE

      1024     atoms
      1024     bonds
      1024     angles
      1021     dihedrals

         1     atom types
         1     bond types
         1     angle types
         1     dihedral types

    500.0000  1500.2985 xlo xhi
    500.0000  1500.2985 ylo yhi
    500.0000 1500.2985 zlo zhi

Masses

         1          14.02

Atoms

1 1 1 0 1040.6 992.884 1005.65 
2 1 1 0 1040.13 992.19 1005.21 
3 1 1 0 1040.5 991.197 1005.54 
4 1 1 0 1040.45 991.681 1006.28 
5 1 1 0 1040.63 990.769 1006.82 
6 1 1 0 1040.39 989.613 1006.12 
7 1 1 0 1041.17 989.984 1006.51 
8 1 1 0 1040.15 990.532 1006.73 
9 1 1 0 1040.29 989.763 1006.9 
10 1 1 0 1039.75 989.399 1007.78 
11 1 1 0 1038.8 990.215 1007.49 
12 1 1 0 1038.31 990.642 1008.19 
13 1 1 0 1038.62 991.501 1008.64 
14 1 1 0 1038.94 991.659 1009.57 
15 1 1 0 1038.13 991.564 1008.89 
16 1 1 0 1039.21 991.738 1008.35 
17 1 1 0 1038.61 991.303 1007.51 
18 1 1 0 1038.75 992 1006.61 
19 1 1 0 1038.2 993.134 1006.32 
20 1 1 0 1039.24 992.875 1006.91 
21 1 1 0 1039.66 992.254 1006.78 
22 1 1 0 1039.56 991.445 1006.18 
23 1 1 0 1039.22 990.873 1005.82 
24 1 1 0 1038.42 990.526 1005.81 
25 1 1 0 1038.52 991.058 1005.15 
26 1 1 0 1038.98 989.949 1005.47 
27 1 1 0 1038.33 989.64 1004.79 
28 1 1 0 1038.07 988.61 1004.36 
29 1 1 0 1037.24 989.257 1003.72 
30 1 1 0 1037.09 988.468 1003.24 
31 1 1 0 1037.5 987.77 1003.23 
32 1 1 0 1036.68 987.106 1002.77 
33 1 1 0 1037.68 987.058 1002.6 
34 1 1 0 1037.82 988.035 1002.59 
35 1 1 0 1038.8 988.136 1002.88 
36 1 1 0 1039.02 988.718 1002.14 
37 1 1 0 1039.82 989.602 1002.37 
38 1 1 0 1040.38 989.3 1001.66 
39 1 1 0 1040.22 988.478 1002.3 
40 1 1 0 1041.48 988.441 1002.57 
41 1 1 0 1041.39 989.27 1001.86 
42 1 1 0 1040.99 989.559 1002.72 
43 1 1 0 1041.78 989.725 1001.99 
44 1 1 0 1042.39 989.892 1003.02 
45 1 1 0 1042.44 990.529 1004 
46 1 1 0 1043.08 990.791 1003.08 
47 1 1 0 1042.3 991.227 1003.1 
48 1 1 0 1042.9 991.453 1003.24 
49 1 1 0 1042.8 992.362 1003.37 
50 1 1 0 1042.41 992.24 1002.44 
51 1 1 0 1042.06 992.233 1001.69 
52 1 1 0 1041.96 992.375 1002.73 
53 1 1 0 1041.4 992.267 1003.13 
54 1 1 0 1040.66 991.907 1003.63 
55 1 1 0 1039.98 991.34 1002.58 
56 1 1 0 1040.83 991.612 1002.34 
57 1 1 0 1040.86 990.689 1002.63 
58 1 1 0 1041.19 991.105 1003.66 
59 1 1 0 1040.73 990.761 1004.74 
60 1 1 0 1040.63 989.896 1004.35 
61 1 1 0 1041.01 989.923 1003.76 
62 1 1 0 1041.66 989.293 1003.68 
63 1 1 0 1041.78 988.119 1004.29 
64 1 1 0 1041.26 987.816 1003.61 
65 1 1 0 1041.71 987.65 1003.07 
66 1 1 0 1041.96 987.282 1003.79 
67 1 1 0 1042.75 986.926 1004.44 
68 1 1 0 1042.33 986.413 1004.31 
69 1 1 0 1042.39 985.837 1003.5 
70 1 1 0 1042.79 985.356 1004.23 
71 1 1 0 1041.89 985 1004.22 
72 1 1 0 1041.05 984.855 1003.82 
73 1 1 0 1041.94 984.764 1003.93 
74 1 1 0 1041.08 984.36 1003.72 
75 1 1 0 1040.87 985.103 1004.58 
76 1 1 0 1041.05 984.464 1005.71 
77 1 1 0 1041.62 984.101 1005.21 
78 1 1 0 1041.08 983.217 1005.97 
79 1 1 0 1041.3 982.639 1005.71 
80 1 1 0 1040.63 981.956 1004.94 
81 1 1 0 1039.96 981.193 1004.72 
82 1 1 0 1039.1 981.091 1004.12 
83 1 1 0 1039.06 979.859 1003.99 
84 1 1 0 1038.69 978.705 1004.25 
85 1 1 0 1039.71 979.164 1004.58 
86 1 1 0 1039.74 978.756 1005.53 
87 1 1 0 1040.4 979.06 1004.78 
88 1 1 0 1040.09 978.286 1004.91 
89 1 1 0 1040.12 978.643 1005.91 
90 1 1 0 1040.26 979.483 1006.21 
91 1 1 0 1040.33 979.942 1006.84 
92 1 1 0 1039.82 979.613 1006.54 
93 1 1 0 1040.35 979.416 1007.66 
94 1 1 0 1040.37 980.415 1007.08 
95 1 1 0 1040.61 980.902 1006.9 
96 1 1 0 1040.8 980.834 1005.76 
97 1 1 0 1041.09 980.853 1005.02 
98 1 1 0 1040.61 980.143 1004.51 
99 1 1 0 1040.64 979.717 1003.82 
100 1 1 0 1040.46 978.882 1003.05 
101 1 1 0 1040.89 979.679 1002.54 
102 1 1 0 1040.9 979.137 1001.76 
103 1 1 0 1040.77 978.689 1002.48 
104 1 1 0 1039.95 978.664 1001.28 
105 1 1 0 1039.58 978.509 1000.17 
106 1 1 0 1039.91 977.505 1000.91 
107 1 1 0 1039.74 978.342 1000.96 
108 1 1 0 1039.61 978.254 1000.06 
109 1 1 0 1038.98 978.934 999.573 
110 1 1 0 1039.99 979.263 999.449 
111 1 1 0 1039.46 978.779 998.449 
112 1 1 0 1038.55 978.973 997.684 
113 1 1 0 1038.18 978.814 996.885 
114 1 1 0 1038.17 978.133 996.223 
115 1 1 0 1038.62 977.818 996.861 
116 1 1 0 1038.39 976.91 996.187 
117 1 1 0 1038.74 975.899 995.788 
118 1 1 0 1038.43 974.947 995.146 
119 1 1 0 1038.26 975.512 995.756 
120 1 1 0 1039.14 975.996 995.918 
121 1 1 0 1039.99 975.163 995.918 
122 1 1 0 1039.94 974.889 997.059 
123 1 1 0 1038.85 974.9 997.61 
124 1 1 0 1038.87 975.213 998.469 
125 1 1 0 1038.96 975.919 999.222 
126 1 1 0 1038.64 976.58 999.919 
127 1 1 0 1037.66 976.794 1000.6 
128 1 1 0 1036.84 976.59 1000.47 
129 1 1 0 1036.26 976.125 999.763 
130 1 1 0 1035.92 975.386 1000.59 
131 1 1 0 1036.49 975.539 1000.77 
132 1 1 0 1035.53 975.412 999.87 
133 1 1 0 1036.22 975.238 1000.41 
134 1 1 0 1036.81 974.562 1000.52 
135 1 1 0 1037.03 974.913 1001.48 
136 1 1 0 1037.74 974.092 1001.82 
137 1 1 0 1038.13 974.724 1002.72 
138 1 1 0 1038.31 975.238 1003.77 
139 1 1 0 1037.95 974.714 1003.73 
140 1 1 0 1037.83 974.115 1004.27 
141 1 1 0 1037.54 974.656 1003.67 
142 1 1 0 1037.42 973.785 1002.91 
143 1 1 0 1036.56 973.448 1003.56 
144 1 1 0 1035.35 973.831 1003.3 
145 1 1 0 1036.02 973.511 1004.3 
146 1 1 0 1036.87 973.234 1004.78 
147 1 1 0 1037.37 972.373 1005.22 
148 1 1 0 1036.7 972.067 1004.66 
149 1 1 0 1037.5 971.684 1004.71 
150 1 1 0 1038.04 970.982 1004.77 
151 1 1 0 1038.69 971.248 1005.43 
152 1 1 0 1039.67 970.535 1005.82 
153 1 1 0 1040.47 970.638 1005.78 
154 1 1 0 1041.51 970.333 1005.82 
155 1 1 0 1041.97 969.365 1004.98 
156 1 1 0 1043.19 969.196 1005.1 
157 1 1 0 1042.78 969.494 1004.38 
158 1 1 0 1042.69 968.987 1005.09 
159 1 1 0 1043.18 967.745 1005.45 
160 1 1 0 1043.81 967.151 1006.34 
161 1 1 0 1044.28 967.122 1007.29 
162 1 1 0 1044.93 967.685 1008.33 
163 1 1 0 1045.58 967.807 1009.69 
164 1 1 0 1046.08 967.575 1010.46 
165 1 1 0 1045.85 967.941 1009.71 
166 1 1 0 1044.99 967.619 1010.2 
167 1 1 0 1044.1 966.801 1010.63 
168 1 1 0 1044.87 967.495 1010.28 
169 1 1 0 1044.77 968.4 1010.55 
170 1 1 0 1043.77 968.997 1010.25 
171 1 1 0 1044.39 968.453 1009.98 
172 1 1 0 1045.16 968.883 1010.25 
173 1 1 0 1045.91 969.296 1009.38 
174 1 1 0 1045.03 969.854 1009.29 
175 1 1 0 1046.27 970.3 1008.91 
176 1 1 0 1045.71 970.444 1008.42 
177 1 1 0 1046.67 970.958 1008.67 
178 1 1 0 1046.91 972.185 1008.8 
179 1 1 0 1047.82 972.327 1008.96 
180 1 1 0 1047.94 972.883 1009.78 
181 1 1 0 1047.48 972.344 1010.27 
182 1 1 0 1047.12 971.906 1010.83 
183 1 1 0 1047.39 971.408 1011.84 
184 1 1 0 1047.15 970.573 1011.73 
185 1 1 0 1046.58 971.362 1012.01 
186 1 1 0 1046.71 970.827 1011.4 
187 1 1 0 1047.05 970.431 1012.52 
188 1 1 0 1047.66 969.432 1011.99 
189 1 1 0 1047.26 968.746 1012.16 
190 1 1 0 1047.66 969.639 1012.57 
191 1 1 0 1048.44 969.23 1012.54 
192 1 1 0 1049.23 968.353 1013.26 
193 1 1 0 1049.72 968.314 1012.19 
194 1 1 0 1049.3 967.689 1012.85 
195 1 1 0 1050.6 967.38 1013.14 
196 1 1 0 1051.57 967.582 1012.43 
197 1 1 0 1052.53 967.672 1011.82 
198 1 1 0 1052.97 967.509 1010.91 
199 1 1 0 1052.39 966.924 1011.09 
200 1 1 0 1052.53 966.672 1010.16 
201 1 1 0 1052.08 965.803 1010.05 
202 1 1 0 1051.21 965.49 1010.63 
203 1 1 0 1051.57 966.366 1011.12 
204 1 1 0 1050.76 966.266 1011.77 
205 1 1 0 1050.02 966.779 1011.47 
206 1 1 0 1050.1 965.78 1012.1 
207 1 1 0 1049.79 966.375 1012.49 
208 1 1 0 1048.94 966.65 1011.97 
209 1 1 0 1048.99 965.638 1012.52 
210 1 1 0 1049.17 966.436 1012.1 
211 1 1 0 1048.78 967.624 1011.72 
212 1 1 0 1048.22 967.919 1011.95 
213 1 1 0 1047.07 967.708 1012.32 
214 1 1 0 1047.71 967.039 1012.86 
215 1 1 0 1047.98 967.827 1013.31 
216 1 1 0 1047.28 967.702 1012.84 
217 1 1 0 1047.37 968.69 1013.54 
218 1 1 0 1047.82 968.356 1014.31 
219 1 1 0 1047.29 969.325 1013.74 
220 1 1 0 1047.56 970.307 1013.36 
221 1 1 0 1048.08 970.248 1013.95 
222 1 1 0 1048.18 970.945 1014.59 
223 1 1 0 1049.28 970.448 1014.71 
224 1 1 0 1048.58 969.901 1014.53 
225 1 1 0 1048.73 970.049 1015.16 
226 1 1 0 1049.78 969.909 1015.01 
227 1 1 0 1050.95 969.787 1014.57 
228 1 1 0 1051.58 968.984 1014.95 
229 1 1 0 1050.6 969.32 1015.6 
230 1 1 0 1050.72 969.431 1014.77 
231 1 1 0 1050.42 968.968 1015.34 
232 1 1 0 1050.9 969.459 1016.42 
233 1 1 0 1049.7 969.911 1016.17 
234 1 1 0 1049.86 969.139 1016.82 
235 1 1 0 1050.11 969.929 1016.93 
236 1 1 0 1049.54 969.618 1018.14 
237 1 1 0 1050.53 969.099 1018.75 
238 1 1 0 1051.49 968.675 1018.77 
239 1 1 0 1052.03 968.847 1017.95 
240 1 1 0 1052.68 968.22 1017.49 
241 1 1 0 1052.38 969.05 1017.31 
242 1 1 0 1051.65 968.201 1016.69 
243 1 1 0 1051.05 968.155 1017.38 
244 1 1 0 1050.39 968.008 1018.34 
245 1 1 0 1049.86 968.473 1018.86 
246 1 1 0 1049.24 967.922 1018.42 
247 1 1 0 1049.16 968.741 1019.04 
248 1 1 0 1050.07 968.639 1019.85 
249 1 1 0 1050.4 969.475 1020.25 
250 1 1 0 1051.09 969.043 1020.94 
251 1 1 0 1050.79 968.84 1019.99 
252 1 1 0 1051.44 968.927 1020.86 
253 1 1 0 1050.6 968.549 1021.18 
254 1 1 0 1050.52 967.941 1020.99 
255 1 1 0 1051.7 967.841 1021.33 
256 1 1 0 1051.78 966.794 1021.24 
257 1 1 0 1052.88 967.096 1020.95 
258 1 1 0 1052.56 968.114 1020.74 
259 1 1 0 1052.79 967.943 1019.86 
260 1 1 0 1053.69 967.482 1020.57 
261 1 1 0 1054.67 967.466 1020.89 
262 1 1 0 1054.91 967.621 1021.62 
263 1 1 0 1055.96 968.083 1021.23 
264 1 1 0 1056.63 967.203 1020.96 
265 1 1 0 1055.94 966.668 1020.04 
266 1 1 0 1056.37 967.364 1020.26 
267 1 1 0 1057.15 967.341 1020.24 
268 1 1 0 1057.01 968.596 1020.29 
269 1 1 0 1057.32 968.536 1020.95 
270 1 1 0 1057.16 969.576 1020.29 
271 1 1 0 1056.12 969.942 1020.43 
272 1 1 0 1056.46 970.785 1021.35 
273 1 1 0 1056.52 971.509 1020.44 
274 1 1 0 1056.07 970.908 1021.14 
275 1 1 0 1057.05 971.766 1021.08 
276 1 1 0 1057.67 971.253 1021.38 
277 1 1 0 1058.83 971.337 1021.15 
278 1 1 0 1058.89 971.473 1020.2 
279 1 1 0 1059.55 970.621 1020.46 
280 1 1 0 1058.63 970.904 1020.54 
281 1 1 0 1058.82 970.307 1021.39 
282 1 1 0 1057.92 969.684 1021.33 
283 1 1 0 1058.82 969.747 1022.14 
284 1 1 0 1059.5 970.151 1022.73 
285 1 1 0 1060.35 970.529 1023.32 
286 1 1 0 1060.14 969.778 1022.77 
287 1 1 0 1059.84 969.784 1021.69 
288 1 1 0 1061.01 969.447 1021.74 
289 1 1 0 1062.29 969.573 1021.91 
290 1 1 0 1062.94 970.164 1021.2 
291 1 1 0 1063.02 968.951 1021.24 
292 1 1 0 1062.37 969.393 1020.43 
293 1 1 0 1061.91 968.85 1019.55 
294 1 1 0 1061.07 968.674 1019.17 
295 1 1 0 1060.26 968.049 1018.97 
296 1 1 0 1060.95 967.017 1019.16 
297 1 1 0 1061.5 966.42 1018.5 
298 1 1 0 1061.16 965.798 1017.62 
299 1 1 0 1061.39 967.075 1017.36 
300 1 1 0 1061 967.982 1017.28 
301 1 1 0 1061.65 968.873 1017.3 
302 1 1 0 1061.01 968.427 1017.51 
303 1 1 0 1061.87 968.415 1017.76 
304 1 1 0 1061.76 969.236 1017.54 
305 1 1 0 1062.55 968.991 1018.01 
306 1 1 0 1062.71 969.091 1017.12 
307 1 1 0 1063.16 968.478 1017.88 
308 1 1 0 1062.7 968.094 1018.45 
309 1 1 0 1062.98 968.372 1019.09 
310 1 1 0 1063.19 968.442 1020.4 
311 1 1 0 1063.08 967.608 1021.13 
312 1 1 0 1062.52 968.142 1020.15 
313 1 1 0 1063.12 966.956 1019.71 
314 1 1 0 1062.48 966.776 1020.57 
315 1 1 0 1061.75 966.073 1020.24 
316 1 1 0 1061.12 965.878 1021.18 
317 1 1 0 1060.86 965.456 1021.9 
318 1 1 0 1062.1 965.257 1022.23 
319 1 1 0 1062.14 965.053 1023.2 
320 1 1 0 1061.93 964.615 1022.57 
321 1 1 0 1062.74 964.404 1022.07 
322 1 1 0 1063.55 965.332 1022.13 
323 1 1 0 1063.48 965.213 1020.99 
324 1 1 0 1063.55 964.76 1021.51 
325 1 1 0 1063.82 964.597 1020.59 
326 1 1 0 1063.19 963.881 1020.08 
327 1 1 0 1063.52 963.385 1020.41 
328 1 1 0 1063.9 963.942 1020.93 
329 1 1 0 1063.76 962.708 1021.49 
330 1 1 0 1063.45 962.203 1022.01 
331 1 1 0 1063.96 962.875 1021.51 
332 1 1 0 1064.03 961.803 1020.94 
333 1 1 0 1063.67 961.178 1020.21 
334 1 1 0 1063.46 960.288 1020.14 
335 1 1 0 1063.95 959.599 1019.89 
336 1 1 0 1064.95 959.316 1020.64 
337 1 1 0 1065.31 960.071 1020.78 
338 1 1 0 1065.72 960.111 1019.62 
339 1 1 0 1065.26 960.706 1020.18 
340 1 1 0 1065.75 961.879 1019.9 
341 1 1 0 1064.84 962.964 1020.25 
342 1 1 0 1065.44 963.459 1020.63 
343 1 1 0 1066.01 964.077 1020.82 
344 1 1 0 1066.35 963.368 1021.08 
345 1 1 0 1066.14 964.375 1021.5 
346 1 1 0 1067.29 964.166 1022.08 
347 1 1 0 1068.02 963.797 1022.7 
348 1 1 0 1069.11 963.379 1022.29 
349 1 1 0 1069.48 963.13 1022.79 
350 1 1 0 1069.98 963.611 1023.42 
351 1 1 0 1069.31 964.027 1024.48 
352 1 1 0 1069.61 963.52 1023.44 
353 1 1 0 1069.27 962.75 1023.76 
354 1 1 0 1068.95 961.802 1023.28 
355 1 1 0 1069.04 962.351 1022.3 
356 1 1 0 1068.55 961.635 1021.83 
357 1 1 0 1068.62 961.096 1021.44 
358 1 1 0 1068.06 960.095 1021.28 
359 1 1 0 1067.49 959.079 1021.4 
360 1 1 0 1068.53 958.593 1021.78 
361 1 1 0 1068.83 958.117 1022.75 
362 1 1 0 1068.55 957.171 1022.87 
363 1 1 0 1069.11 957.352 1023.93 
364 1 1 0 1068.88 956.636 1023.17 
365 1 1 0 1068.83 955.967 1022.74 
366 1 1 0 1068.71 955.275 1023.53 
367 1 1 0 1068.86 954.278 1023.87 
368 1 1 0 1068.79 955.049 1024.56 
369 1 1 0 1067.87 954.494 1023.93 
370 1 1 0 1067.5 954.311 1022.95 
371 1 1 0 1066.92 953.705 1022.66 
372 1 1 0 1067.07 952.709 1022.16 
373 1 1 0 1067.46 951.861 1021.52 
374 1 1 0 1066.22 951.762 1021.64 
375 1 1 0 1065.53 952.646 1021.63 
376 1 1 0 1065.91 952.864 1020.42 
377 1 1 0 1064.82 953.079 1019.69 
378 1 1 0 1063.8 952.47 1019.33 
379 1 1 0 1063.53 952.89 1020.35 
380 1 1 0 1063.21 953.649 1020.34 
381 1 1 0 1062.63 954.093 1020.73 
382 1 1 0 1062.03 953.72 1021 
383 1 1 0 1061.41 953.522 1021.96 
384 1 1 0 1061.29 953.191 1021.08 
385 1 1 0 1061.26 953.069 1021.98 
386 1 1 0 1062.11 952.345 1022.56 
387 1 1 0 1062.37 951.632 1022.84 
388 1 1 0 1062.06 952.312 1023.93 
389 1 1 0 1061.08 952.821 1024.4 
390 1 1 0 1061.8 952.563 1023.6 
391 1 1 0 1060.64 952.443 1023.3 
392 1 1 0 1059.81 952.083 1023.72 
393 1 1 0 1059.39 951.442 1022.64 
394 1 1 0 1059.69 950.902 1023.35 
395 1 1 0 1059.01 950.57 1024.03 
396 1 1 0 1057.83 950.465 1023.95 
397 1 1 0 1057.42 951.574 1023.69 
398 1 1 0 1057.6 951.79 1024.57 
399 1 1 0 1057.5 951.008 1023.78 
400 1 1 0 1058.5 951.142 1023.15 
401 1 1 0 1058.27 952.148 1023.49 
402 1 1 0 1057.7 952.777 1022.96 
403 1 1 0 1058.89 952.859 1022.95 
404 1 1 0 1058.57 952.748 1023.87 
405 1 1 0 1058.05 953.896 1023.4 
406 1 1 0 1057.5 954.585 1023.61 
407 1 1 0 1058.33 955.223 1023.27 
408 1 1 0 1059.49 955.344 1023.29 
409 1 1 0 1059.05 956.214 1023.32 
410 1 1 0 1059.52 956.881 1023.51 
411 1 1 0 1058.84 956.457 1022.44 
412 1 1 0 1058.89 957.387 1022.9 
413 1 1 0 1059.43 957.449 1022.2 
414 1 1 0 1060.09 957.848 1022.04 
415 1 1 0 1060.27 958.78 1021.07 
416 1 1 0 1059.28 959.102 1020.88 
417 1 1 0 1058.88 959.082 1021.7 
418 1 1 0 1058.31 958.916 1022.62 
419 1 1 0 1058.62 958.222 1022.26 
420 1 1 0 1059.3 958.136 1021.46 
421 1 1 0 1058.76 958.096 1020.47 
422 1 1 0 1058.85 957.278 1020.02 
423 1 1 0 1058.43 957.808 1019.16 
424 1 1 0 1058.61 958.638 1019.23 
425 1 1 0 1058.42 959.341 1018.1 
426 1 1 0 1058.45 958.241 1018.76 
427 1 1 0 1058.47 956.989 1018.63 
428 1 1 0 1058.53 956.292 1017.83 
429 1 1 0 1058.23 955.961 1016.83 
430 1 1 0 1057.09 955.731 1016.16 
431 1 1 0 1057.26 955.366 1016.96 
432 1 1 0 1057.33 954.67 1017.43 
433 1 1 0 1056.67 955.165 1017.08 
434 1 1 0 1057.18 954.11 1017.58 
435 1 1 0 1057.34 953.279 1018.32 
436 1 1 0 1056.72 952.182 1018.16 
437 1 1 0 1057.71 952.205 1018.5 
438 1 1 0 1056.68 952.442 1017.87 
439 1 1 0 1055.93 952.536 1017.33 
440 1 1 0 1055.39 952.526 1018.1 
441 1 1 0 1055.63 953.229 1018.91 
442 1 1 0 1055.57 953.486 1019.96 
443 1 1 0 1055.07 953.857 1019.02 
444 1 1 0 1055.44 954.301 1018.52 
445 1 1 0 1054.64 954.911 1018.04 
446 1 1 0 1054.22 956.161 1017.94 
447 1 1 0 1054.15 956.995 1018.04 
448 1 1 0 1053.57 957.914 1018.55 
449 1 1 0 1053.58 958.738 1018.1 
450 1 1 0 1053.51 957.604 1018.03 
451 1 1 0 1052.86 956.978 1017.84 
452 1 1 0 1053.11 956.901 1016.73 
453 1 1 0 1053.54 957.706 1016.06 
454 1 1 0 1052.99 957.721 1016.92 
455 1 1 0 1051.95 958.134 1017.03 
456 1 1 0 1051.73 959.255 1016.31 
457 1 1 0 1051.68 959.077 1015.58 
458 1 1 0 1052.53 959.338 1016.06 
459 1 1 0 1052.92 958.934 1015 
460 1 1 0 1053.47 957.793 1014.7 
461 1 1 0 1053.11 958.488 1013.86 
462 1 1 0 1053.28 959.353 1014.17 
463 1 1 0 1054.41 959.432 1013.55 
464 1 1 0 1055.12 958.47 1012.92 
465 1 1 0 1053.98 958.277 1012.71 
466 1 1 0 1052.89 958.105 1012.66 
467 1 1 0 1053.49 958.997 1011.91 
468 1 1 0 1053.58 959.218 1011.17 
469 1 1 0 1053.62 958.306 1010.73 
470 1 1 0 1053.84 958.939 1010 
471 1 1 0 1053.18 959.148 1008.98 
472 1 1 0 1052.8 958.691 1008.62 
473 1 1 0 1052.05 959.345 1008.37 
474 1 1 0 1051.46 958.476 1008.08 
475 1 1 0 1051.04 958.296 1007.3 
476 1 1 0 1051.05 957.356 1006.47 
477 1 1 0 1051.75 956.916 1006.06 
478 1 1 0 1052.59 956.453 1005.08 
479 1 1 0 1052.01 957.288 1005.43 
480 1 1 0 1052.78 957.719 1005.79 
481 1 1 0 1052.68 957.68 1004.68 
482 1 1 0 1053.54 958.352 1005.51 
483 1 1 0 1054.53 958.219 1004.51 
484 1 1 0 1055.5 958.026 1004.18 
485 1 1 0 1055.63 957.656 1005.26 
486 1 1 0 1056.37 957.769 1006 
487 1 1 0 1056.91 956.699 1006.17 
488 1 1 0 1057.81 956.383 1006.82 
489 1 1 0 1058.31 957.118 1007.77 
490 1 1 0 1059.3 957.07 1008.13 
491 1 1 0 1060.05 956.541 1008.09 
492 1 1 0 1059.61 957.396 1008.17 
493 1 1 0 1059.15 956.995 1009.16 
494 1 1 0 1058.17 957.552 1009.43 
495 1 1 0 1058.57 957.238 1009.96 
496 1 1 0 1057.84 957.741 1010.16 
497 1 1 0 1056.85 956.789 1009.84 
498 1 1 0 1057.48 957.145 1010.71 
499 1 1 0 1057.55 956.167 1011.35 
500 1 1 0 1057.3 957.412 1011.37 
501 1 1 0 1056.82 957.216 1012.34 
502 1 1 0 1057.4 958.076 1012.24 
503 1 1 0 1056.97 957.07 1012.04 
504 1 1 0 1058.16 956.845 1011.95 
505 1 1 0 1058.5 957.273 1011.03 
506 1 1 0 1059.58 957.461 1010.78 
507 1 1 0 1059.92 957.739 1009.77 
508 1 1 0 1060.11 958.423 1010.64 
509 1 1 0 1059.3 958.941 1009.97 
510 1 1 0 1060.08 958.512 1009.83 
511 1 1 0 1060.14 959.04 1010.71 
512 1 1 0 1059.63 959.644 1010.38 
513 1 1 0 1060.41 959.514 1010.01 
514 1 1 0 1061.05 958.814 1009.82 
515 1 1 0 1061.6 958.643 1010.32 
516 1 1 0 1061.95 958.557 1009.8 
517 1 1 0 1062.02 959.691 1009.33 
518 1 1 0 1062.86 959.639 1009.17 
519 1 1 0 1063.26 958.538 1008.69 
520 1 1 0 1063.16 957.912 1009.25 
521 1 1 0 1063.92 957.735 1009.32 
522 1 1 0 1063.91 958.149 1008.48 
523 1 1 0 1064.64 958.707 1008.22 
524 1 1 0 1065.9 958.551 1007.68 
525 1 1 0 1066.53 958.916 1006.84 
526 1 1 0 1066.02 958.462 1007.93 
527 1 1 0 1065.45 959.598 1007.9 
528 1 1 0 1066.24 960.445 1007.92 
529 1 1 0 1066.95 959.84 1007.44 
530 1 1 0 1066.02 959.762 1007.04 
531 1 1 0 1065 959.899 1006.92 
532 1 1 0 1065.67 960.148 1005.97 
533 1 1 0 1065.82 959.788 1007.11 
534 1 1 0 1065.56 961.186 1006.77 
535 1 1 0 1065.36 960.835 1007.58 
536 1 1 0 1064.69 961.361 1007.36 
537 1 1 0 1063.94 960.781 1007.37 
538 1 1 0 1063.55 960.014 1006.84 
539 1 1 0 1063.8 959.102 1006.76 
540 1 1 0 1063.74 958.028 1006.68 
541 1 1 0 1063.26 958.574 1006.32 
542 1 1 0 1062.83 959.195 1006.66 
543 1 1 0 1062.51 958.573 1007.43 
544 1 1 0 1061.24 958.891 1007.05 
545 1 1 0 1061.86 958.582 1006.25 
546 1 1 0 1061.95 959.02 1005.45 
547 1 1 0 1062.29 958.957 1004.5 
548 1 1 0 1061.41 959.178 1004.3 
549 1 1 0 1062.25 958.732 1003.78 
550 1 1 0 1062.53 959.462 1002.76 
551 1 1 0 1062.12 960.31 1003.36 
552 1 1 0 1062.57 961.316 1003.46 
553 1 1 0 1062.14 961.169 1004.21 
554 1 1 0 1062.95 961.501 1004.19 
555 1 1 0 1063.95 961.853 1004.15 
556 1 1 0 1063.86 960.95 1004.03 
557 1 1 0 1064.12 961.051 1003.06 
558 1 1 0 1063.5 961.459 1002.59 
559 1 1 0 1064.39 962.158 1002.19 
560 1 1 0 1063.67 962.645 1002.56 
561 1 1 0 1062.9 962.919 1003.58 
562 1 1 0 1063.91 962.861 1003.68 
563 1 1 0 1063.72 963.95 1004 
564 1 1 0 1063.59 964.579 1003.49 
565 1 1 0 1062.62 964.461 1004.36 
566 1 1 0 1063.56 964.427 1004.14 
567 1 1 0 1062.57 964.375 1003.43 
568 1 1 0 1061.87 965.117 1003.79 
569 1 1 0 1062.48 965.475 1004.35 
570 1 1 0 1061.77 964.92 1004.13 
571 1 1 0 1061.68 965.968 1004.24 
572 1 1 0 1061.6 965.92 1003.29 
573 1 1 0 1060.41 965.486 1003.55 
574 1 1 0 1060.62 965.37 1002.55 
575 1 1 0 1060.37 965.473 1003.59 
576 1 1 0 1060.94 965.082 1003.02 
577 1 1 0 1060.7 966.053 1002.83 
578 1 1 0 1060.23 967.04 1002.55 
579 1 1 0 1060.29 967.677 1001.8 
580 1 1 0 1060.09 966.838 1001.65 
581 1 1 0 1060.88 966.337 1001.52 
582 1 1 0 1061.24 966.891 1000.72 
583 1 1 0 1061.41 967.079 1001.57 
584 1 1 0 1061.22 967.46 1002.83 
585 1 1 0 1060.74 967.883 1003.48 
586 1 1 0 1059.8 967.263 1003.35 
587 1 1 0 1059.82 966.543 1004 
588 1 1 0 1058.78 967.256 1004.06 
589 1 1 0 1058.82 966.355 1003.21 
590 1 1 0 1058.12 967.353 1002.59 
591 1 1 0 1058.16 967.084 1003.69 
592 1 1 0 1057.99 966.695 1004.75 
593 1 1 0 1056.72 966.782 1004.26 
594 1 1 0 1056.38 965.822 1003.86 
595 1 1 0 1056.85 964.93 1004.69 
596 1 1 0 1056 965.462 1004.7 
597 1 1 0 1056.1 966.042 1005.64 
598 1 1 0 1055.36 966.605 1006.58 
599 1 1 0 1055.37 967.401 1006.74 
600 1 1 0 1056.27 967.435 1007.24 
601 1 1 0 1055.68 968.289 1006.62 
602 1 1 0 1055.84 969.367 1005.92 
603 1 1 0 1055.49 968.663 1005.69 
604 1 1 0 1055.88 969.293 1006.17 
605 1 1 0 1055.95 969.808 1007.15 
606 1 1 0 1055.12 969.863 1006.29 
607 1 1 0 1055.16 969.104 1007.57 
608 1 1 0 1054.69 970.097 1006.99 
609 1 1 0 1055.47 970.841 1006.69 
610 1 1 0 1055.69 971.404 1007.29 
611 1 1 0 1054.4 971.136 1007.27 
612 1 1 0 1053.8 971.767 1007.74 
613 1 1 0 1054.49 971.178 1007.14 
614 1 1 0 1054.07 970.99 1007.83 
615 1 1 0 1053.66 972.09 1007.61 
616 1 1 0 1054.49 973.18 1007.42 
617 1 1 0 1053.96 973.108 1007.05 
618 1 1 0 1053.31 973.727 1007.55 
619 1 1 0 1053.19 973.632 1006.85 
620 1 1 0 1052.99 973.454 1007.39 
621 1 1 0 1052.14 972.987 1007.54 
622 1 1 0 1051.47 973.178 1008.39 
623 1 1 0 1052.26 973.155 1007.6 
624 1 1 0 1052.39 973.802 1008.36 
625 1 1 0 1051.39 974.196 1008.42 
626 1 1 0 1051.92 975.049 1007.82 
627 1 1 0 1051.31 975.834 1007.27 
628 1 1 0 1051.1 975.566 1006.16 
629 1 1 0 1050.18 975.482 1005.58 
630 1 1 0 1049.83 975.575 1006.61 
631 1 1 0 1050.13 976.345 1006.08 
632 1 1 0 1050.1 975.232 1006.25 
633 1 1 0 1050.61 974.746 1006.27 
634 1 1 0 1051.12 974.293 1006.47 
635 1 1 0 1050.45 974.194 1007.6 
636 1 1 0 1049.87 975.084 1007.86 
637 1 1 0 1049.28 975.976 1007.89 
638 1 1 0 1049.88 976.018 1008.67 
639 1 1 0 1050.77 975.705 1008.94 
640 1 1 0 1051.91 976.433 1009.15 
641 1 1 0 1051.22 977.043 1009.22 
642 1 1 0 1050.35 977.169 1008.6 
643 1 1 0 1050.18 977.999 1007.75 
644 1 1 0 1049.98 977.583 1006.83 
645 1 1 0 1050.65 977.253 1006.26 
646 1 1 0 1050.44 978.033 1005.4 
647 1 1 0 1051.09 978.652 1005.34 
648 1 1 0 1051.5 979.117 1004.54 
649 1 1 0 1052.28 979.87 1004.68 
650 1 1 0 1051.78 979.871 1005.74 
651 1 1 0 1050.74 979.675 1005.65 
652 1 1 0 1050.18 980.073 1005.09 
653 1 1 0 1049.22 979.958 1004.86 
654 1 1 0 1049.02 979.503 1003.95 
655 1 1 0 1049.16 978.911 1003.3 
656 1 1 0 1049.95 978.332 1003.45 
657 1 1 0 1049.21 979.011 1003.64 
658 1 1 0 1049.47 977.903 1003.5 
659 1 1 0 1049.83 978.057 1004.12 
660 1 1 0 1049.18 977.786 1004.58 
661 1 1 0 1048.26 978.082 1005.24 
662 1 1 0 1049.01 978.176 1004.86 
663 1 1 0 1048.44 978.864 1005.11 
664 1 1 0 1048.21 979.72 1005.56 
665 1 1 0 1047.87 979.653 1006.41 
666 1 1 0 1047.6 979.252 1006.88 
667 1 1 0 1047.17 979.629 1007.79 
668 1 1 0 1048.28 979.46 1007.87 
669 1 1 0 1049.04 979.826 1007.5 
670 1 1 0 1049.43 980.656 1007.38 
671 1 1 0 1049.59 979.633 1007.45 
672 1 1 0 1049.38 978.907 1007.81 
673 1 1 0 1049.01 978.256 1007.56 
674 1 1 0 1049.29 977.245 1007.67 
675 1 1 0 1049.17 977.103 1008.4 
676 1 1 0 1048.51 977.078 1009.3 
677 1 1 0 1048.04 978.155 1009.12 
678 1 1 0 1049.16 978.664 1008.76 
679 1 1 0 1048.15 978.541 1009.16 
680 1 1 0 1049.42 978.556 1008.9 
681 1 1 0 1050.02 979.097 1009.98 
682 1 1 0 1050.86 978.716 1010.33 
683 1 1 0 1051.18 978.996 1011.18 
684 1 1 0 1051.32 979.554 1011.87 
685 1 1 0 1052.56 979.289 1011.94 
686 1 1 0 1053.42 979.328 1011.27 
687 1 1 0 1054.31 978.852 1011.29 
688 1 1 0 1054.43 979.38 1010.35 
689 1 1 0 1053.37 979.496 1010.66 
690 1 1 0 1053.92 980.292 1011.22 
691 1 1 0 1053.65 979.754 1012.28 
692 1 1 0 1053.93 980.159 1013.34 
693 1 1 0 1054.69 980.437 1014.23 
694 1 1 0 1054.62 979.466 1013.62 
695 1 1 0 1055.27 980.545 1013.64 
696 1 1 0 1055.93 980.904 1014.48 
697 1 1 0 1056.73 980.958 1014.43 
698 1 1 0 1057.65 981.43 1015.17 
699 1 1 0 1059.06 981.543 1015.05 
700 1 1 0 1059.78 981.108 1014.35 
701 1 1 0 1059.53 980.418 1014.44 
702 1 1 0 1059.25 979.397 1014.03 
703 1 1 0 1058.41 979.583 1013.47 
704 1 1 0 1058.56 978.756 1013.86 
705 1 1 0 1057.48 978.483 1014.13 
706 1 1 0 1058.29 978.217 1014.32 
707 1 1 0 1057.84 978.875 1015.17 
708 1 1 0 1057.21 978.113 1015.39 
709 1 1 0 1058.24 977.998 1015.57 
710 1 1 0 1058.57 977.543 1016.47 
711 1 1 0 1058.38 976.78 1015.97 
712 1 1 0 1058.45 977.068 1016.85 
713 1 1 0 1058.5 976.714 1015.89 
714 1 1 0 1058.41 976.252 1015.1 
715 1 1 0 1057.48 976.092 1014.91 
716 1 1 0 1058.7 975.257 1014.99 
717 1 1 0 1059.26 975.424 1013.97 
718 1 1 0 1058.61 974.716 1014.47 
719 1 1 0 1059.64 974.614 1014.76 
720 1 1 0 1059.57 973.797 1014.11 
721 1 1 0 1060.1 974.51 1014.62 
722 1 1 0 1060.72 974.219 1014.12 
723 1 1 0 1061.41 974.31 1013.16 
724 1 1 0 1061.27 974.127 1012.29 
725 1 1 0 1062.26 973.301 1011.97 
726 1 1 0 1061.22 973.066 1012.46 
727 1 1 0 1060.51 972.716 1011.9 
728 1 1 0 1060.05 972.789 1010.7 
729 1 1 0 1059.84 971.818 1010.52 
730 1 1 0 1059.23 972.279 1009.81 
731 1 1 0 1058.42 971.702 1009.73 
732 1 1 0 1057.69 972.079 1009.26 
733 1 1 0 1058.88 972.232 1009.21 
734 1 1 0 1058.72 972.639 1008.17 
735 1 1 0 1058.9 974.065 1008.2 
736 1 1 0 1059.53 974.35 1007.92 
737 1 1 0 1058.7 975.039 1007.74 
738 1 1 0 1057.7 975.333 1007.53 
739 1 1 0 1058.65 975.919 1006.96 
740 1 1 0 1059.28 975.139 1006.58 
741 1 1 0 1059.51 974.065 1005.99 
742 1 1 0 1059.33 972.88 1006.04 
743 1 1 0 1059.35 972.172 1006.28 
744 1 1 0 1060.07 971.745 1006.68 
745 1 1 0 1060.75 971.541 1006.18 
746 1 1 0 1060.05 971.026 1005.88 
747 1 1 0 1059.89 971.883 1005.37 
748 1 1 0 1060.88 972.32 1005.71 
749 1 1 0 1060.88 971.675 1004.4 
750 1 1 0 1060.22 972.701 1004.64 
751 1 1 0 1059.41 973.305 1004.3 
752 1 1 0 1058.68 972.763 1004.79 
753 1 1 0 1058.46 971.844 1004.03 
754 1 1 0 1057.61 971.256 1003.51 
755 1 1 0 1057.68 971.514 1002.59 
756 1 1 0 1058.62 971.201 1002.25 
757 1 1 0 1058.65 971.427 1001.58 
758 1 1 0 1058.69 971.376 1000.73 
759 1 1 0 1058.59 972.112 999.992 
760 1 1 0 1058.45 973.14 1000.03 
761 1 1 0 1058.24 972.408 999.916 
762 1 1 0 1057.19 971.689 999.74 
763 1 1 0 1057.17 971.928 998.818 
764 1 1 0 1056.12 972.264 998.53 
765 1 1 0 1056.09 971.359 997.817 
766 1 1 0 1055.66 970.41 997.136 
767 1 1 0 1055.72 971.629 997.044 
768 1 1 0 1056.53 971.904 996.552 
769 1 1 0 1055.92 971.149 996.246 
770 1 1 0 1055.34 971.625 996.008 
771 1 1 0 1055.84 972.262 996.274 
772 1 1 0 1054.76 972.342 996.09 
773 1 1 0 1054.26 971.348 996.417 
774 1 1 0 1054.18 971.992 995.74 
775 1 1 0 1054.22 971.15 995.088 
776 1 1 0 1053.29 971.15 996.09 
777 1 1 0 1052.41 971.461 996.749 
778 1 1 0 1051.7 971.795 996.857 
779 1 1 0 1050.86 972.117 997.813 
780 1 1 0 1050.83 971.145 998.586 
781 1 1 0 1049.88 971.482 998.983 
782 1 1 0 1050.4 970.449 999.104 
783 1 1 0 1051.22 969.621 998.839 
784 1 1 0 1050.84 968.952 998.157 
785 1 1 0 1050.11 968.635 998.894 
786 1 1 0 1049.19 967.97 998.623 
787 1 1 0 1049.26 968.911 998.034 
788 1 1 0 1048.86 969.819 998.239 
789 1 1 0 1049.33 970.15 999.154 
790 1 1 0 1048.8 970.037 1000.27 
791 1 1 0 1048.83 968.933 1000.51 
792 1 1 0 1048.89 968.269 1001.73 
793 1 1 0 1048.58 967.872 1002.4 
794 1 1 0 1048.35 967.595 1003.51 
795 1 1 0 1048.65 968.557 1002.49 
796 1 1 0 1049.01 967.891 1003.43 
797 1 1 0 1049.06 968.958 1003.17 
798 1 1 0 1049.38 969.333 1002.33 
799 1 1 0 1049.86 968.724 1002.36 
800 1 1 0 1050.81 968.081 1002.62 
801 1 1 0 1051.2 967.08 1002.1 
802 1 1 0 1051.43 967.117 1002.89 
803 1 1 0 1051.71 966.556 1001.71 
804 1 1 0 1051.69 967.722 1001.65 
805 1 1 0 1051.78 968.836 1001.27 
806 1 1 0 1050.89 969.422 1001.71 
807 1 1 0 1051.45 968.603 1001.41 
808 1 1 0 1051.64 969.219 1000.81 
809 1 1 0 1052.56 968.929 999.948 
810 1 1 0 1052.26 969.871 999.505 
811 1 1 0 1052.21 968.878 998.882 
812 1 1 0 1051.73 968.254 999.098 
813 1 1 0 1052.12 967.817 998.325 
814 1 1 0 1051.71 968.655 998.719 
815 1 1 0 1052.27 969.112 997.733 
816 1 1 0 1052.71 969.472 996.978 
817 1 1 0 1053.4 969.651 996.423 
818 1 1 0 1053.59 969.397 995.584 
819 1 1 0 1053.62 968.418 995.122 
820 1 1 0 1052.78 968.76 994.665 
821 1 1 0 1052.62 968.624 993.744 
822 1 1 0 1051.81 968.907 993.911 
823 1 1 0 1050.69 969.285 993.834 
824 1 1 0 1049.84 969.021 993.268 
825 1 1 0 1048.7 969.553 993.462 
826 1 1 0 1048.55 968.685 994.152 
827 1 1 0 1047.76 968.879 995.049 
828 1 1 0 1047.71 969.498 995.693 
829 1 1 0 1047.59 969.748 996.593 
830 1 1 0 1047.24 970.451 996.894 
831 1 1 0 1047.62 970.635 995.89 
832 1 1 0 1046.96 969.832 996.301 
833 1 1 0 1047.33 970.806 996.457 