LAMMPS Description
 
        100  atoms
        99  bonds
        
         1  atom types
         1  bond types
   
 0 200 xlo xhi
 0 200 ylo yhi
 0 200 zlo zhi

Masses
 
  1	1.0

Bond Coeffs
 
  1	200	1


Atoms

	1 1 1 77.2491 78.1736 54.2133 
	2 1 1 77.0648 77.4826 53.4037 
	3 1 1 78.0251 77.4002 53.3888 
	4 1 1 77.6838 76.7 53.6562 
	5 1 1 77.3576 75.8106 53.7457 
	6 1 1 78.0913 76.2995 54.1901 
	7 1 1 77.1934 76.1002 54.4069 
	8 1 1 76.4855 76.1329 53.9015 
	9 1 1 75.6646 75.5677 53.8106 
	10 1 1 76.3232 74.9217 53.3149 
	11 1 1 77.3697 75.3364 53.2114 
	12 1 1 77.5641 75.5494 52.3003 
	13 1 1 77.4984 76.455 52.3225 
	14 1 1 77.7954 76.0608 51.4109 
	15 1 1 77.228 75.9277 50.6885 
	16 1 1 77.7928 75.2826 51.315 
	17 1 1 77.3129 74.7459 51.9741 
	18 1 1 76.6763 75.4461 51.677 
	19 1 1 76.5801 76.4355 51.3515 
	20 1 1 77.1619 77.0999 51.7971 
	21 1 1 77.1212 76.6567 50.8685 
	22 1 1 78.1632 76.6441 50.7198 
	23 1 1 77.5016 76.2411 51.2944 
	24 1 1 77.1061 76.809 51.8018 
	25 1 1 77.908 76.5249 51.5635 
	26 1 1 77.7086 77.3642 50.8607 
	27 1 1 78.4282 77.2877 51.4311 
	28 1 1 78.8002 78.3191 51.414 
	29 1 1 78.9708 78.6667 50.4409 
	30 1 1 79.86 78.1285 50.5598 
	31 1 1 79.0732 78.1317 50.0804 
	32 1 1 79.6667 79.0124 49.7893 
	33 1 1 80.4613 79.4213 49.3789 
	34 1 1 79.6704 79.7815 49.2193 
	35 1 1 79.4212 79.5572 50.3177 
	36 1 1 79.3517 80.2899 49.8079 
	37 1 1 79.2474 80.6333 50.663 
	38 1 1 79.0648 81.595 50.6959 
	39 1 1 78.2813 80.9536 51.1246 
	40 1 1 77.7223 81.4296 50.3831 
	41 1 1 78.1956 81.2365 51.1711 
	42 1 1 77.8353 80.2898 51.0288 
	43 1 1 77.8181 79.3174 50.9236 
	44 1 1 76.934 79.0059 50.8736 
	45 1 1 76.8521 79.7235 51.4997 
	46 1 1 77.7335 79.4686 51.599 
	47 1 1 78.284 79.6037 50.6658 
	48 1 1 78.7937 80.3417 50.0375 
	49 1 1 77.9349 79.7903 49.7951 
	50 1 1 78.9367 79.2611 49.6506 
	51 1 1 79.1804 80.1499 49.2449 
	52 1 1 80.1081 80.5148 49.2349 
	53 1 1 79.3534 80.7359 49.8492 
	54 1 1 80.1212 80.9975 50.4183 
	55 1 1 79.2078 81.5569 49.9704 
	56 1 1 78.8203 81.0785 50.7017 
	57 1 1 78.4392 80.3223 50.7123 
	58 1 1 79.3482 80.5013 50.3258 
	59 1 1 80.3221 80.5193 50.5369 
	60 1 1 80.8513 79.6588 50.4252 
	61 1 1 80.3019 79.7287 51.0958 
	62 1 1 79.6207 80.4147 50.8904 
	63 1 1 80.1534 81.2418 51.0018 
	64 1 1 80.201 81.4435 52.0873 
	65 1 1 80.1046 82.4104 51.8689 
	66 1 1 80.2056 81.7704 50.9903 
	67 1 1 81.0452 82.1611 51.3136 
	68 1 1 81.4807 82.1014 50.3233 
	69 1 1 81.5216 83.1437 50.7072 
	70 1 1 81.2647 83.7883 50.0095 
	71 1 1 80.4824 84.1098 49.686 
	72 1 1 81.03 83.3848 49.4973 
	73 1 1 81.5371 83.9625 50.0876 
	74 1 1 81.0028 83.201 49.8346 
	75 1 1 80.888 82.4997 50.3157 
	76 1 1 81.2277 83.446 50.1945 
	77 1 1 81.7724 82.7955 49.701 
	78 1 1 81.2232 83.6216 49.5495 
	79 1 1 81.2994 83.7651 48.4968 
	80 1 1 80.986 83.244 49.2459 
	81 1 1 81.4448 82.6869 49.927 
	82 1 1 82.4226 82.488 49.7937 
	83 1 1 82.8863 82.7835 50.7838 
	84 1 1 83.3059 82.5141 50.0793 
	85 1 1 83.6492 81.6032 49.7216 
	86 1 1 83.3095 82.4554 50.0421 
	87 1 1 83.5634 82.7659 49.1847 
	88 1 1 83.0433 81.8011 49.3015 
	89 1 1 83.1938 80.9954 49.8896 
	90 1 1 83.8649 80.9291 49.2694 
	91 1 1 84.5812 81.0677 49.8273 
	92 1 1 85.0677 80.3511 50.1887 
	93 1 1 84.6023 81.2472 50.3655 
	94 1 1 83.8356 81.8988 50.4466 
	95 1 1 84.0289 80.8813 50.4003 
	96 1 1 83.8364 80.872 51.4035 
	97 1 1 84.2238 80.8571 52.4251 
	98 1 1 83.296 80.9827 52.0137 
	99 1 1 82.5088 81.2579 52.4771 
	100 1 1 81.4674 81.2967 52.4284 

Bonds

         1         1         1         2
         2         1         2         3
         3         1         3         4
         4         1         4         5
         5         1         5         6
         6         1         6         7
         7         1         7         8
         8         1         8         9
         9         1         9        10
        10         1        10        11
        11         1        11        12
        12         1        12        13
        13         1        13        14
        14         1        14        15
        15         1        15        16
        16         1        16        17
        17         1        17        18
        18         1        18        19
        19         1        19        20
        20         1        20        21
        21         1        21        22
        22         1        22        23
        23         1        23        24
        24         1        24        25
        25         1        25        26
        26         1        26        27
        27         1        27        28
        28         1        28        29
        29         1        29        30
        30         1        30        31
        31         1        31        32
        32         1        32        33
        33         1        33        34
        34         1        34        35
        35         1        35        36
        36         1        36        37
        37         1        37        38
        38         1        38        39
        39         1        39        40
        40         1        40        41
        41         1        41        42
        42         1        42        43
        43         1        43        44
        44         1        44        45
        45         1        45        46
        46         1        46        47
        47         1        47        48
        48         1        48        49
        49         1        49        50
        50         1        50        51
        51         1        51        52
        52         1        52        53
        53         1        53        54
        54         1        54        55
        55         1        55        56
        56         1        56        57
        57         1        57        58
        58         1        58        59
        59         1        59        60
        60         1        60        61
        61         1        61        62
        62         1        62        63
        63         1        63        64
        64         1        64        65
        65         1        65        66
        66         1        66        67
        67         1        67        68
        68         1        68        69
        69         1        69        70
        70         1        70        71
        71         1        71        72
        72         1        72        73
        73         1        73        74
        74         1        74        75
        75         1        75        76
        76         1        76        77
        77         1        77        78
        78         1        78        79
        79         1        79        80
        80         1        80        81
        81         1        81        82
        82         1        82        83
        83         1        83        84
        84         1        84        85
        85         1        85        86
        86         1        86        87
        87         1        87        88
        88         1        88        89
        89         1        89        90
        90         1        90        91
        91         1        91        92
        92         1        92        93
        93         1        93        94
        94         1        94        95
        95         1        95        96
        96         1        96        97
        97         1        97        98
        98         1        98        99
        99         1        99       100

