LAMMPS Description
 
        100  atoms
        99  bonds
        
         1  atom types
         1  bond types
   
 0 200 xlo xhi
 0 200 ylo yhi
 0 200 zlo zhi

Masses
 
  1	1.0

Bond Coeffs
 
  1	200	1


Atoms

	1 1 1 78.456 79.9277 59.7761 
	2 1 1 78.1182 79.0746 59.7176 
	3 1 1 77.9031 79.4372 58.7199 
	4 1 1 78.6853 79.5212 58.1147 
	5 1 1 79.4925 78.9923 58.3604 
	6 1 1 79.3747 78.7395 59.3406 
	7 1 1 80.3706 78.8868 59.3777 
	8 1 1 80.0399 77.9866 59.6964 
	9 1 1 80.5491 77.7788 58.702 
	10 1 1 81.3261 77.6625 58.0618 
	11 1 1 81.0427 76.9461 57.3952 
	12 1 1 80.7992 77.8017 56.9071 
	13 1 1 80.0632 77.5157 56.2713 
	14 1 1 80.1131 76.554 56.0112 
	15 1 1 79.3062 76.4703 56.5846 
	16 1 1 79.8906 76.9161 55.9046 
	17 1 1 79.8553 76.9679 54.869 
	18 1 1 80.0621 76.0721 54.4606 
	19 1 1 79.1968 76.3241 53.7973 
	20 1 1 78.443 76.1433 53.1154 
	21 1 1 78.3301 76.956 53.6897 
	22 1 1 77.4913 76.5428 53.6572 
	23 1 1 77.6544 77.5262 53.3227 
	24 1 1 76.7691 78.0182 53.405 
	25 1 1 77.7316 78.0965 53.5246 
	26 1 1 78.7329 78.3042 53.6097 
	27 1 1 79.4425 78.6222 54.0944 
	28 1 1 78.9462 78.3282 53.1863 
	29 1 1 79.7835 77.8059 53.0964 
	30 1 1 80.1718 77.9964 52.2003 
	31 1 1 79.72 77.17 52.1841 
	32 1 1 80.6711 77.3856 52.1002 
	33 1 1 81.1873 77.4506 51.3056 
	34 1 1 81.9143 76.9297 51.1088 
	35 1 1 82.1183 77.1721 50.2007 
	36 1 1 81.9386 77.4422 49.2617 
	37 1 1 82.8065 77.3611 48.6935 
	38 1 1 82.51 76.7853 49.4129 
	39 1 1 83.3986 76.7103 49.6183 
	40 1 1 84.2112 77.2181 49.7729 
	41 1 1 83.391 76.6865 49.8279 
	42 1 1 83.3426 75.9221 49.0723 
	43 1 1 83.7122 75.1412 48.5356 
	44 1 1 82.8317 75.3213 48.2268 
	45 1 1 83.3371 75.0164 47.513 
	46 1 1 82.8907 75.8445 47.449 
	47 1 1 82.0076 75.5309 47.1353 
	48 1 1 81.0417 75.1995 47.1728 
	49 1 1 81.2474 75.9796 46.5834 
	50 1 1 81.1889 75.8896 47.5796 
	51 1 1 80.6464 75.9399 48.4591 
	52 1 1 80.5128 76.9171 48.196 
	53 1 1 79.4834 76.9737 47.9083 
	54 1 1 79.3864 77.9464 48.1464 
	55 1 1 80.3932 78.1344 48.3825 
	56 1 1 79.4273 77.9325 48.1577 
	57 1 1 79.8531 78.8219 48.2975 
	58 1 1 80.2602 79.0895 49.2123 
	59 1 1 79.5702 78.4412 49.5381 
	60 1 1 78.6446 78.4156 49.7575 
	61 1 1 79.0062 78.8931 50.4856 
	62 1 1 78.6027 78.4595 49.6707 
	63 1 1 78.232 78.2707 48.8228 
	64 1 1 77.6603 79.137 48.5073 
	65 1 1 76.8983 79.7787 48.7408 
	66 1 1 76.0247 80.1795 48.578 
	67 1 1 75.8955 80.4566 47.6281 
	68 1 1 76.5094 81.1456 48.0889 
	69 1 1 77.2247 80.9325 47.5171 
	70 1 1 77.8002 80.1483 47.5956 
	71 1 1 78.298 81.0202 47.752 
	72 1 1 78.0077 81.9583 48.0645 
	73 1 1 77.1492 82.2991 48.4144 
	74 1 1 77.8352 82.6711 49.113 
	75 1 1 76.8593 82.8514 49.1264 
	76 1 1 77.6659 83.2177 48.6958 
	77 1 1 78.1771 84.0325 48.8744 
	78 1 1 78.0348 83.5782 47.9194 
	79 1 1 78.148 83.5756 46.9352 
	80 1 1 78.3918 84.5228 47.0574 
	81 1 1 79.0831 84.2503 47.6547 
	82 1 1 78.7059 85.1083 47.5877 
	83 1 1 78.3715 85.7811 46.9583 
	84 1 1 79.0287 85.5817 47.6248 
	85 1 1 79.2934 86.4654 47.9734 
	86 1 1 80.1745 86.3038 47.5383 
	87 1 1 81.0919 86.0838 47.7649 
	88 1 1 82.0006 86.0015 47.3365 
	89 1 1 82.3118 85.4198 48.0621 
	90 1 1 81.9115 85.3666 48.9687 
	91 1 1 81.0284 84.9644 48.9373 
	92 1 1 80.3241 84.9505 49.6645 
	93 1 1 80.0943 85.5755 50.3861 
	94 1 1 80.5833 84.715 50.3422 
	95 1 1 81.0029 85.6582 49.9602 
	96 1 1 80.1462 85.9439 50.2702 
	97 1 1 79.736 86.8306 50.379 
	98 1 1 79.9692 87.7858 50.2653 
	99 1 1 80.0051 86.8347 50.7393 
	100 1 1 79.1272 86.9892 50.2422 

Bonds

         1         1         1         2
         2         1         2         3
         3         1         3         4
         4         1         4         5
         5         1         5         6
         6         1         6         7
         7         1         7         8
         8         1         8         9
         9         1         9        10
        10         1        10        11
        11         1        11        12
        12         1        12        13
        13         1        13        14
        14         1        14        15
        15         1        15        16
        16         1        16        17
        17         1        17        18
        18         1        18        19
        19         1        19        20
        20         1        20        21
        21         1        21        22
        22         1        22        23
        23         1        23        24
        24         1        24        25
        25         1        25        26
        26         1        26        27
        27         1        27        28
        28         1        28        29
        29         1        29        30
        30         1        30        31
        31         1        31        32
        32         1        32        33
        33         1        33        34
        34         1        34        35
        35         1        35        36
        36         1        36        37
        37         1        37        38
        38         1        38        39
        39         1        39        40
        40         1        40        41
        41         1        41        42
        42         1        42        43
        43         1        43        44
        44         1        44        45
        45         1        45        46
        46         1        46        47
        47         1        47        48
        48         1        48        49
        49         1        49        50
        50         1        50        51
        51         1        51        52
        52         1        52        53
        53         1        53        54
        54         1        54        55
        55         1        55        56
        56         1        56        57
        57         1        57        58
        58         1        58        59
        59         1        59        60
        60         1        60        61
        61         1        61        62
        62         1        62        63
        63         1        63        64
        64         1        64        65
        65         1        65        66
        66         1        66        67
        67         1        67        68
        68         1        68        69
        69         1        69        70
        70         1        70        71
        71         1        71        72
        72         1        72        73
        73         1        73        74
        74         1        74        75
        75         1        75        76
        76         1        76        77
        77         1        77        78
        78         1        78        79
        79         1        79        80
        80         1        80        81
        81         1        81        82
        82         1        82        83
        83         1        83        84
        84         1        84        85
        85         1        85        86
        86         1        86        87
        87         1        87        88
        88         1        88        89
        89         1        89        90
        90         1        90        91
        91         1        91        92
        92         1        92        93
        93         1        93        94
        94         1        94        95
        95         1        95        96
        96         1        96        97
        97         1        97        98
        98         1        98        99
        99         1        99       100

